/*--------------------------------*- C++ -*----------------------------------*\
| =========                 |                                                 |
| \\      /  F ield         | OpenFOAM: The Open Source CFD Toolbox           |
|  \\    /   O peration     | Version:  2112                                  |
|   \\  /    A nd           | Website:  www.openfoam.com                      |
|    \\/     M anipulation  |                                                 |
\*---------------------------------------------------------------------------*/
FoamFile
{
    version     2.0;
    format      ascii;
    arch        "LSB;label=32;scalar=64";
    class       volVectorField;
    location    "0";
    object      U;
}
// * * * * * * * * * * * * * * * * * * * * * * * * * * * * * * * * * * * * * //

dimensions      [ 0 1 -1 0 0 0 0 ];

internalField   uniform ( 0 0 0 );

boundaryField
{
    inlet
    {
        type            fixedValue;
        value           nonuniform List<vector> 
25
(
(0.046463772 0 0)
(0.27311743 0 0)
(0.48057109 0 0)
(0.66882475 0 0)
(0.83787841 0 0)
(0.98773206 0 0)
(1.1183857 0 0)
(1.2298394 0 0)
(1.322093 0 0)
(1.3951467 0 0)
(1.4490004 0 0)
(1.483654 0 0)
(1.4991077 0 0)
(1.4953613 0 0)
(1.472415 0 0)
(1.4302686 0 0)
(1.3689223 0 0)
(1.288376 0 0)
(1.1886296 0 0)
(1.0696833 0 0)
(0.93153694 0 0)
(0.7741906 0 0)
(0.59764426 0 0)
(0.40189792 0 0)
(0.18695158 0 0)
)
;
    }
    outlet
    {
        type            zeroGradient;
    }
    "(cylinder_wall|top|bottom)"
    {
        type            noSlip;
    }
    jet1
    {
        type            fixedValue;
        value           uniform ( 0 0 0 );
    }
    jet2
    {
        type            fixedValue;
        value           uniform ( 0 0 0 );
    }
    "(front|back)"
    {
        type            empty;
    }
}


// ************************************************************************* //
