/*--------------------------------*- C++ -*----------------------------------*\
| =========                 |                                                 |
| \\      /  F ield         | OpenFOAM: The Open Source CFD Toolbox           |
|  \\    /   O peration     | Version:  2112                                  |
|   \\  /    A nd           | Website:  www.openfoam.com                      |
|    \\/     M anipulation  |                                                 |
\*---------------------------------------------------------------------------*/
FoamFile
{
    version     2.0;
    format      ascii;
    arch        "LSB;label=32;scalar=64";
    class       volVectorField;
    location    "0.335";
    object      ddt0(U);
}
// * * * * * * * * * * * * * * * * * * * * * * * * * * * * * * * * * * * * * //

dimensions      [0 1 -2 0 0 0 0];

internalField   nonuniform List<vector> 
8100
(
(-0.57108752 0.041560082 -2.8508491e-27)
(-0.66566453 -0.050241955 0)
(-1.0288325 -0.14999819 1.8994835e-20)
(-0.27526969 -0.042482368 0)
(-1.0411799 -0.32715898 -1.2848879e-20)
(-1.1625951 -0.047696179 -1.3801396e-20)
(-0.44581907 -0.13680231 6.713611e-20)
(-1.2526863 -0.50619013 1.501455e-21)
(-0.73890467 -0.28187961 0)
(-1.6797059 -0.17191857 -7.470611e-22)
(-0.065452732 -0.061413834 -7.4051234e-20)
(-1.5320999 -0.32702593 9.0070897e-22)
(-1.1081749 -0.73519318 0)
(-0.68472168 -0.42970608 0)
(-0.15128334 -0.1424381 -3.2743633e-21)
(-1.7917502 -0.62866534 -2.3671592e-21)
(-1.1516027 -1.0478312 0)
(-0.77280647 -0.66162236 0)
(-0.35979202 -0.33593656 -8.2286526e-20)
(0.15457106 -0.078142112 0)
(-1.5313089 -1.0369897 0)
(-2.2163458 -0.45163896 0)
(-0.88704669 -1.3490226 -4.1203683e-22)
(-0.57286673 -0.85591789 -9.0467566e-20)
(-0.27074443 -0.4620853 8.0081676e-20)
(0.17491087 -0.12184517 0)
(-1.4614648 -1.444893 0)
(-2.0577006 -1.0916435 1.9205643e-21)
(-0.45601404 -1.2196626 0)
(-0.7810718 -1.8246175 3.3362278e-20)
(-0.27345598 -0.72536926 9.7750691e-20)
(0.044644257 -0.31819326 0)
(0.35016193 -0.067287506 -2.8480652e-19)
(-0.99798985 -1.8231807 -4.645852e-20)
(-1.7968708 -1.5006409 -2.5265793e-21)
(-2.4552816 -0.99897103 0)
(-0.10845006 -1.4354736 -2.0633296e-19)
(-0.27449956 -2.1672178 0)
(-0.025145739 -0.85882189 0)
(0.14357581 -0.41604754 -1.6469926e-19)
(0.45607903 -0.093743078 6.064416e-19)
(-1.3178533 -2.203922 0)
(-1.6714747 -1.9008376 0)
(-2.1396515 -1.6336417 0)
(0.16077814 -1.8666441 1.3574176e-19)
(0.20127452 -1.1920895 5.7656098e-19)
(-0.14634921 -2.7044288 0)
(0.22333562 -0.67122979 0)
(0.41546418 -0.26398386 1.6763615e-19)
(0.49717637 -0.050716052 -3.2545185e-19)
(-0.9014599 -2.5793265 3.3286209e-22)
(-1.8705378 -2.0806606 0)
(-2.5065571 -1.6160253 0)
(0.5858554 -2.002892 1.6255815e-19)
(0.55154806 -1.2757815 -4.0008402e-19)
(0.39741479 -2.8855924 3.4124906e-21)
(-0.47279135 -2.9432695 -2.3420061e-20)
(0.47557942 -0.73921743 2.591402e-20)
(0.51818339 -0.31588237 -3.3453771e-19)
(0.66662734 -0.044621215 6.5144709e-21)
(-1.1305138 -2.9227145 3.2403932e-20)
(-1.4883995 -2.5759883 -2.8635891e-21)
(-2.0516469 -2.3381023 0)
(0.82271996 -2.473796 -3.0755261e-19)
(0.89042573 -1.650436 -8.5859245e-19)
(0.7931436 -1.0259141 -6.7002274e-19)
(0.55265003 -3.4630407 -2.2441931e-19)
(-0.37878597 -3.468728 8.2272014e-22)
(0.63553641 -0.53398134 -2.6318299e-20)
(0.71996685 -0.18197974 3.3190493e-19)
(0.56863083 -0.02880724 0)
(-0.80362485 -3.4240063 0)
(-1.7514383 -2.8704513 0)
(-2.3375891 -2.297927 0)
(1.2218874 -2.4899908 8.5567553e-19)
(1.2482862 -1.6839369 6.0062301e-19)
(1.08613 -1.0082316 6.7624066e-19)
(0.1219064 -3.8734073 2.0868252e-20)
(0.97921645 -3.4917272 1.0783023e-19)
(0.87170246 -0.53314997 0)
(0.81770914 -0.19091075 5.6070312e-19)
(0.78562251 0.0042856917 -6.538865e-19)
(-0.94814976 -3.8055635 -1.7608889e-19)
(-1.3425976 -3.4271019 1.1373282e-20)
(-1.7433897 -3.1094053 0)
(1.3649697 -2.8687246 -1.5495119e-18)
(1.5159699 -2.0312977 -5.6006645e-19)
(1.4640428 -1.2885264 6.0609047e-19)
(1.2113921 -0.74592598 -5.6672993e-19)
(-0.12079447 -4.4895811 -5.6205882e-19)
(1.0479491 -3.8165926 0)
(0.95433443 -0.35353687 -5.7564528e-19)
(0.93577891 -0.08183374 -5.6458202e-19)
(0.5721984 -0.0053664118 1.396111e-18)
(-0.43623945 -4.3095188 1.3112671e-19)
(-1.4801888 -3.6808967 0)
(-1.833764 -2.9529873 0)
(1.7372294 -2.7705668 3.168067e-18)
(1.8635552 -1.9103854 -1.6796955e-19)
(1.7585199 -1.1900037 -1.1664354e-18)
(1.4482597 -0.66179027 -5.8720651e-20)
(0.49035278 -4.7491494 6.5447191e-19)
(0.80772168 -4.3416947 9.6784879e-19)
(1.5005578 -3.5746875 3.6605476e-18)
(1.1391242 -0.30631357 5.7723908e-19)
(1.0170782 -0.059745711 0)
(0.81008015 0.044692278 -7.3783034e-19)
(-0.57414582 -4.6220228 0)
(-0.97605567 -4.1802051 0)
(-1.0577085 -3.7724928 0)
(1.9679603 -2.1765369 -1.462912e-18)
(1.7419265 -3.0341144 -6.0058937e-18)
(2.0490249 -1.4111255 9.6167765e-20)
(1.8575199 -0.83044554 5.5728314e-19)
(1.4681461 -0.43742764 6.3260426e-19)
(0.27756194 -5.2646729 -4.8889381e-19)
(1.0373074 -4.4454142 -1.1447237e-18)
(1.461088 -3.8418724 0)
(1.1578947 -0.16218343 0)
(1.0506549 0.016242444 8.2594211e-19)
(0.51282689 0.016152681 0)
(-0.12740835 -5.0131374 0)
(-0.89231076 -4.2719502 8.6794734e-20)
(-1.0038546 -3.5360738 0)
(2.2372105 -1.9308694 0)
(2.0126502 -2.7531523 3.1313118e-18)
(2.282698 -1.1876725 0)
(2.0588097 -0.66049797 4.0206072e-20)
(1.6553236 -0.31791278 2.3385182e-20)
(0.20772069 -5.4243716 0)
(0.63692652 -5.2158895 5.4160003e-19)
(0.88651715 -4.8201523 0)
(1.5860535 -3.6419264 1.5237692e-18)
(1.2915915 -0.087382336 -8.4257805e-19)
(1.1069638 0.061257385 -8.3266776e-19)
(0.75094215 0.076053696 3.7058276e-21)
(-0.21330211 -5.1100584 -1.3938102e-19)
(-0.38950471 -4.7293053 -9.189905e-20)
(-0.40456026 -4.2857082 1.7673999e-21)
(2.4280466 -1.3522556 0)
(2.278801 -2.1401764 0)
(1.9658672 -2.9787753 -1.6298212e-18)
(2.3751032 -0.7683214 -7.3473066e-19)
(2.0352275 -0.39583794 -8.1738983e-19)
(1.5876355 -0.14580063 0)
(0.078753938 -5.6077496 -5.1620033e-19)
(0.41898656 -5.5963376 0)
(1.0796728 -4.6079473 0)
(1.352982 -3.926886 -8.4749453e-19)
(1.2531164 0.022151745 8.4523036e-19)
(1.0579523 0.10195048 -3.6842075e-21)
(0.40087819 0.035175567 0)
(0.020436422 -5.3910847 1.413334e-19)
(-0.28458288 -4.722087 -1.8374812e-21)
(-0.37372939 -4.0303497 0)
(2.5881602 -1.0454774 7.7890474e-19)
(2.4258654 -1.7847751 -6.9040886e-20)
(2.0476543 -2.6384197 1.0391757e-18)
(2.507142 -0.53295604 6.9570143e-19)
(2.1864457 -0.2142372 1.6679485e-18)
(1.7326909 -0.013881808 0)
(0.39732843 -5.7149595 2.1196371e-19)
(0.54891752 -5.3903142 0)
(0.69077392 -4.9366187 0)
(1.3947774 -3.4834248 8.844416e-19)
(1.3420596 0.11213682 1.5035375e-20)
(1.0963719 0.16563823 -1.0488219e-18)
(0.6204589 0.098151174 1.127586e-18)
(0.13491922 -5.4439982 -2.2019605e-19)
(0.070674396 -5.0674319 0)
(0.035988233 -4.6574108 4.173716e-21)
(2.7160283 -0.6172603 -7.7538878e-19)
(2.6732591 -1.2113923 0)
(2.3813992 -1.977363 -2.1852058e-18)
(1.7420411 -2.7891246 1.4533435e-19)
(2.4928669 -0.24949515 0)
(2.0760634 -0.019816579 7.3851498e-20)
(1.601712 0.11769742 -1.4994152e-20)
(0.32476604 -5.8673279 1.8321093e-19)
(0.22812662 -5.6406072 0)
(0.47514035 -4.5826456 5.2657557e-19)
(1.0481667 -3.5069586 -4.0535945e-19)
(1.2489248 0.18918876 0)
(0.96508486 0.17357107 2.158779e-18)
(0.2474501 0.047424764 -1.122985e-18)
(0.37089153 -5.6481817 -5.9273777e-21)
(0.10506722 -5.0315049 -4.2109783e-21)
(0.10687426 -4.3001399 0)
(2.8140593 -0.38023314 0)
(2.7705792 -0.91993084 -8.6398419e-19)
(2.3959804 -1.5712876 1.1134603e-18)
(1.6655044 -2.2666232 0)
(2.607199 -0.03924938 2.9113875e-20)
(2.1970317 0.15954978 -9.3227889e-19)
(1.7066742 0.25702856 0)
(0.26104603 -5.7667018 1.472085e-19)
(0.12508529 -5.2622546 1.7862228e-19)
(0.52044021 -3.9062011 -1.6169364e-19)
(0.045357733 -4.7793618 -9.7438607e-19)
(0.86929337 -2.7700104 4.946555e-19)
(1.2959389 0.29234897 0)
(0.98873755 0.25211128 -1.113044e-18)
(0.43472115 0.11404323 0)
(0.29197169 -5.6241989 1.9093473e-19)
(0.27300531 -5.3079763 0)
(0.25511037 -4.821678 -7.4395609e-20)
(2.8663204 -0.10709425 -2.9161919e-20)
(2.9503618 -0.52075095 9.1536457e-19)
(2.6948887 -1.0454398 -9.3006636e-19)
(1.9174386 -1.6144743 -5.8881888e-20)
(1.0896401 -2.1851692 0)
(2.5263949 0.17756089 -1.0480553e-18)
(2.0239667 0.31258413 0)
(1.5248353 0.35920746 0)
(0.19977587 -5.7570691 -1.4114353e-19)
(0.041392362 -5.3735797 0)
(0.083910304 -3.4381042 2.5356332e-19)
(-0.19926181 -4.2260228 -1.3962228e-19)
(0.21465996 -2.7464934 5.9156056e-19)
(1.1463175 0.33791107 1.1572792e-18)
(0.78157996 0.22640745 0)
(0.069704614 0.05822764 0)
(0.25088031 -5.6670048 1.6074607e-19)
(0.24952091 -5.2250582 1.0217748e-19)
(0.45115012 -4.2839708 7.2367989e-20)
(2.9670934 0.094375924 0)
(2.9958647 -0.25792846 9.2676718e-19)
(2.4886655 -0.62936622 1.7250864e-18)
(1.637503 -1.0085103 2.0142716e-20)
(0.694634 -1.3519058 -5.9368719e-19)
(2.6370912 0.37945828 1.0308122e-18)
(2.1223875 0.49358585 0)
(1.5869967 0.51042493 -9.010579e-21)
(0.10075892 -5.59304 1.1378389e-19)
(-0.35116137 -4.8674316 1.0895048e-19)
(-0.16130451 -3.5573815 3.9738262e-20)
(-0.43184541 -4.4004395 3.798501e-19)
(-0.024227916 -2.0638728 -5.518047e-20)
(1.1531189 0.45387271 -2.349924e-18)
(0.78939058 0.32150094 1.2547417e-18)
(0.2058829 0.12250827 0)
(0.20546666 -5.6316247 -3.8171496e-19)
(0.25238495 -5.3407587 -1.1046536e-19)
(0.48973232 -4.6889504 0)
(2.9032673 0.37648649 0)
(3.0404949 0.1255996 -9.2242542e-19)
(2.6179579 -0.16290596 -8.2495185e-19)
(1.8353917 -0.4220377 -2.4269147e-20)
(0.95083567 -0.80544397 6.6094722e-20)
(0.056414524 -1.2949876 -8.0909724e-19)
(2.4794403 0.55750746 1.1736927e-18)
(1.9008778 0.62464379 -1.1805064e-18)
(1.3542301 0.58267289 0)
(-0.1458392 -5.597546 -1.1284456e-19)
(-0.64551655 -4.9129667 -1.7958415e-19)
(-0.42449925 -2.9175668 -2.2072415e-19)
(-0.77636831 -3.9924368 1.2192067e-20)
(-0.38820976 -2.0304514 0)
(0.94331777 0.46658949 1.1969233e-18)
(0.52024751 0.26201871 -2.4928291e-18)
(-0.11182448 0.064450715 0)
(-0.012204597 -5.5225813 2.708836e-19)
(0.32246745 -5.1466591 0)
(0.99403503 -3.7993896 0)
(2.862503 0.75846612 0)
(2.7029137 0.73896402 -1.0074524e-18)
(2.0886148 0.66508963 7.8458168e-19)
(1.2970421 0.43374843 -5.7454406e-19)
(0.27389729 -0.021124758 4.7644658e-19)
(-0.16088012 -0.45299631 -2.0838377e-19)
(2.518447 0.78857665 -1.1719994e-18)
(1.9588816 0.82146491 1.1836771e-18)
(1.3770755 0.74427445 0)
(-0.4652819 -5.2163768 8.6435337e-20)
(-0.8108033 -4.4654773 1.9421037e-19)
(-0.82188775 -2.8315639 3.0226411e-21)
(-0.93282734 -4.1106462 -1.4445513e-19)
(-0.85298297 -3.2535543 1.2363628e-20)
(-0.47151203 -1.2011893 8.1473383e-22)
(0.91181718 0.59741147 0)
(0.50040597 0.38001144 1.23694e-18)
(-0.059762954 0.099745167 0)
(-0.12620133 -5.3193468 0)
(0.22745024 -5.0307947 -4.7518019e-20)
(0.77477055 -4.1419453 -3.8913131e-20)
(2.561613 1.1241949 0)
(2.44588 1.2538084 1.0047969e-18)
(1.9382023 1.3263576 5.6863864e-21)
(1.3761484 1.127047 5.6845005e-19)
(0.56035689 0.49802748 0)
(-0.053613866 0.013301579 7.1582353e-19)
(-0.37895521 -0.52738006 0)
(2.208786 0.99662784 4.8244952e-21)
(1.6652267 0.91426106 1.2352299e-18)
(1.0966309 0.78443277 1.2366495e-18)
(-0.57855388 -5.1244579 8.8859298e-20)
(-1.0184408 -4.4569778 9.0618563e-20)
(-0.98369457 -1.9189187 -1.7836492e-19)
(-1.2270916 -3.5958129 2.3334571e-19)
(-1.2377068 -3.1181953 -8.3193472e-20)
(-0.85833315 -1.311026 4.5205469e-22)
(0.64394295 0.57742197 -2.9762348e-22)
(0.19752218 0.28165787 0)
(-0.3329551 0.064804 1.601928e-18)
(0.015287254 -5.193739 0)
(-0.43710929 -5.1387419 0)
(0.53612478 -4.5682607 5.7088786e-20)
(1.900509 -2.7907931 3.7975409e-20)
(1.96603 1.9126262 0)
(1.576715 2.3746374 -1.2450089e-18)
(1.0898575 2.5854638 -7.8374684e-19)
(0.66947266 2.392719 -4.7514777e-19)
(0.26251316 1.6338717 -2.3146368e-19)
(-0.10291158 0.52733091 -1.7521808e-19)
(-0.38019649 -0.028586799 -1.2588271e-19)
(2.0051679 1.4607686 -5.4667028e-21)
(1.605972 1.143817 -1.2348209e-18)
(1.0667328 0.95679132 -1.2365108e-18)
(-0.90485492 -4.7039133 -2.6385942e-19)
(-1.3095954 -3.9598015 0)
(-1.2693261 -1.981951 3.323248e-21)
(-1.3672186 -3.5680649 3.776572e-21)
(-1.3456683 -2.5652403 0)
(-0.91503952 -0.68920892 3.6117114e-19)
(0.58712794 0.71363801 3.2198054e-22)
(0.16407298 0.41490318 1.3377187e-18)
(-0.3399498 0.10447172 -3.0876127e-18)
(-0.0099657179 -4.8136141 3.5792108e-20)
(-0.59625418 -4.9503061 -1.7168588e-19)
(0.37775898 -4.3731528 -3.7282136e-20)
(1.5821271 -2.9890441 0)
(1.382328 2.2746498 5.4529627e-21)
(1.0745356 2.9132586 1.2357249e-18)
(0.75099117 3.2776707 8.0352108e-21)
(0.52673593 3.2119271 7.3517044e-20)
(0.20123986 2.7345893 2.3116943e-19)
(0.060211531 1.6573538 1.7343054e-20)
(-0.45309263 0.61149456 1.254119e-19)
(-0.7790996 0.018377127 -2.2628389e-19)
(1.4869976 1.6820506 0)
(1.1802194 1.233142 -1.1278581e-18)
(0.72572679 0.94284717 -3.2056763e-22)
(-1.1762686 -4.6611985 -1.0155181e-19)
(-1.5689644 -3.9517239 -2.5209222e-19)
(-1.346604 -1.3752077 0)
(-1.5619435 -3.031041 -2.2725608e-20)
(-1.5710143 -2.5506589 0)
(-1.2533201 -0.69141767 4.1160031e-19)
(0.26361365 0.65088798 0)
(-0.15705511 0.29588404 7.0206807e-20)
(-0.5258183 0.057273223 8.3810055e-20)
(-0.29112526 -4.7005071 0)
(-0.97925436 -4.6491216 1.8487025e-19)
(1.0616471 -3.6389487 0)
(2.7877747 -1.6090897 0)
(0.34887053 3.3020511 -3.54606e-21)
(0.073902485 4.0040673 1.7752966e-18)
(-0.0067640249 4.3119278 0)
(-0.0074318046 4.1930266 7.3257818e-19)
(0.042280528 3.7641469 0)
(-0.058497116 2.9121407 0)
(-0.57347751 1.58961 0)
(-0.93977646 0.73320582 3.8781119e-19)
(0.72394211 2.4067927 0)
(0.88581085 1.6274647 1.128386e-18)
(0.59665589 1.1292711 2.7360531e-22)
(-1.4876156 -4.1933378 3.3246238e-20)
(-1.8630693 -3.4094033 0)
(-1.6449851 -1.3664772 -7.9044793e-19)
(-1.8407135 -3.012733 1.7851287e-20)
(-1.7137003 -1.9520061 3.4492997e-19)
(-1.3562533 0.013856963 -4.238019e-19)
(0.18518706 0.7784543 1.5905792e-18)
(-0.22478277 0.40788367 -1.4076457e-18)
(-0.61091384 0.10014233 8.7916466e-20)
(0.18907487 -3.9960057 0)
(-0.69984433 -4.1616268 -2.0566578e-19)
(0.8639007 -3.4341887 0)
(2.4502507 -1.7389693 -5.1430823e-22)
(-0.24176141 3.4708606 0)
(-0.36280684 4.2674507 -4.1031027e-18)
(-0.26001857 4.6781032 0)
(-0.087107544 4.6523568 -1.9800074e-19)
(-0.040169807 4.3685132 0)
(0.088905701 3.8400105 -3.0625659e-19)
(-0.24854566 2.7721079 0)
(-0.86141708 1.5047734 -8.3465973e-19)
(-1.277489 0.74294671 -5.3928808e-19)
(0.086991525 2.464287 0)
(0.36659115 1.6563059 5.3654325e-19)
(0.16643839 1.0589799 -2.3164026e-18)
(-1.5069689 -4.0768146 1.6667244e-19)
(-2.2012743 -3.3733501 0)
(-1.7943904 -0.69515306 9.6431553e-19)
(-2.0794444 -2.4668927 4.8238598e-20)
(-1.9919658 -1.9579829 -4.7389689e-19)
(-1.6439349 -0.0063777698 -4.9388569e-19)
(-0.14683779 0.64822943 -1.5898527e-18)
(-0.54478994 0.28129337 1.315246e-18)
(-0.69133144 0.048291937 1.3067561e-18)
(-0.043236936 -3.7303235 0)
(-1.0567518 -3.7650713 2.2803856e-19)
(1.8757325 -2.3895641 -3.6312416e-20)
(2.9271857 -0.85563061 5.5244629e-22)
(-1.1953622 4.2348996 -1.4440579e-18)
(-1.0878574 4.8840915 4.6780971e-18)
(-0.65588354 5.1679128 2.9533683e-18)
(-0.24821887 5.1457441 3.2631764e-20)
(-0.037961137 4.7822175 0)
(0.0042509374 4.3014067 2.9849363e-19)
(-0.2989783 3.5757308 4.8240933e-19)
(-0.87387245 2.3900094 1.5062214e-18)
(-1.3243229 1.4089383 -5.8027671e-20)
(-0.93522169 3.2194386 0)
(-0.41417092 2.1037377 -5.382872e-19)
(-0.14654384 1.3388235 2.3164018e-18)
(-1.9163234 -3.5768636 0)
(-2.3951013 -2.8398905 0)
(-2.0358146 -0.74308084 0)
(-2.4130523 -2.4541262 -5.7513977e-19)
(-2.1751317 -1.3438485 4.3024762e-19)
(-1.7288177 0.64900448 -6.4954411e-19)
(-0.28311419 0.76876055 1.4737166e-18)
(-0.61698833 0.36812114 -2.5367069e-18)
(-0.85795574 0.080038484 -1.1256653e-18)
(0.9448865 -2.6956317 0)
(-0.040891244 -2.819003 -8.2773428e-19)
(1.796613 -2.1299603 3.5166985e-20)
(2.5620232 -0.97690204 -1.7039626e-21)
(-1.649339 4.0666953 1.4425381e-18)
(-1.4058493 4.8263684 -2.3351594e-18)
(-0.90491919 5.3089659 3.0786526e-18)
(-0.38817804 5.4312659 -1.672164e-19)
(-0.050585631 5.2145236 0)
(0.097259692 4.7600995 0)
(0.057811725 4.2634604 1.1538608e-19)
(-0.44667839 3.2800673 -1.0544296e-18)
(-1.1307957 2.1150493 -3.6256133e-20)
(-1.5789673 1.3024686 6.4768739e-19)
(-1.406403 3.038011 0)
(-0.9343147 2.0283406 -2.8902095e-23)
(-0.56072537 1.1750608 1.2758292e-23)
(-1.549699 -3.125169 5.3050305e-18)
(-2.4389713 -2.6977 0)
(-2.1432776 -0.10531056 0)
(-2.5916828 -1.8963871 5.3272657e-19)
(-2.46744 -1.3936387 3.6392594e-20)
(-1.9398997 0.54032626 7.2402099e-19)
(-0.60817585 0.61636731 -1.4739863e-18)
(-0.89738492 0.23774178 1.2219007e-18)
(-0.80011997 0.040204595 1.123128e-18)
(0.94953615 -2.2785689 1.6708072e-19)
(-0.066023626 -2.2192672 1.377174e-18)
(2.2400762 -1.3881038 1.6968513e-21)
(2.4574832 -0.44865403 3.056794e-20)
(-2.263144 4.36601 0)
(-1.7774953 5.0084904 1.6559524e-21)
(-1.130674 5.4528977 -1.2586069e-17)
(-0.52070583 5.7887328 -3.9806462e-18)
(-0.059466453 5.6107659 -1.149085e-18)
(0.16323012 5.1565913 -6.4777342e-21)
(0.10282809 4.5257572 -5.7762727e-19)
(-0.3793984 3.718856 1.0226996e-20)
(-1.0596449 2.7487716 6.2851097e-19)
(-1.5496055 1.8492431 -7.0558615e-19)
(-2.2431138 3.5182234 0)
(-1.7945298 2.4285075 2.2213604e-19)
(-1.1494575 1.4474865 0)
(-0.90397477 -2.7726682 -4.2464417e-18)
(-1.9736338 -2.6659519 -2.2086521e-18)
(-2.6323355 -2.1705321 8.0114733e-19)
(-2.3659172 -0.24056937 0)
(-2.8057588 -1.9110137 -8.1328649e-19)
(-2.5808947 -0.83104037 0)
(-1.941038 1.078507 -1.4706277e-18)
(-0.88048751 0.72528281 1.054012e-18)
(-0.98395491 0.29087206 0)
(-1.0711428 0.030587505 0)
(1.5423121 -1.5313148 -2.2466571e-19)
(0.79777113 -1.5707185 -3.9600644e-19)
(1.9950126 -1.3029983 0)
(2.0308475 -0.60522827 -1.2805565e-20)
(-2.5486486 3.9641573 0)
(-2.1342819 4.6651397 0)
(-1.5026452 5.296655 6.5416418e-18)
(-0.80985639 5.7247308 3.9814974e-18)
(-0.16915926 5.9882668 1.5140061e-19)
(0.10251502 5.6943442 0)
(0.32970093 5.1101851 6.4707707e-21)
(0.021752892 4.3537995 -1.0572155e-20)
(-0.69003837 3.4377096 -1.0223202e-20)
(-1.3238325 2.4681922 7.0390386e-19)
(-1.7439796 1.6744708 7.4733228e-19)
(-2.600948 3.0519947 2.7508873e-19)
(-2.0815371 2.0845769 -2.2306384e-19)
(-1.4143074 1.1666235 0)
(-0.059126153 -1.7284692 -3.2038324e-18)
(-1.2324921 -2.0449338 -1.3827558e-18)
(-2.1599459 -1.8796054 0)
(-2.3630159 0.28838198 0)
(-2.8561348 -1.3903551 -2.3472164e-20)
(-2.8238317 -0.95008284 -7.6277024e-19)
(-2.1428408 0.90810108 0)
(-1.112676 0.53040474 -1.0545515e-18)
(-1.1978509 0.1518604 -9.1318352e-19)
(-0.81851289 0.020365812 0)
(1.386241 -1.2183716 3.9513831e-19)
(0.50690448 -1.3476633 1.4387864e-18)
(1.1278334 -1.2516239 -3.1466958e-19)
(1.9678777 -0.89119186 0)
(1.8199939 -0.22919562 -1.5715105e-20)
(-2.826121 3.8721542 0)
(-2.2345212 4.5673785 0)
(-1.548049 5.1948695 0)
(-0.79423907 5.7297603 0)
(-0.14415772 6.0631111 9.9784225e-19)
(0.20131643 6.0060182 0)
(0.39210259 5.4916003 1.1507701e-18)
(0.052604746 4.6985413 0)
(-0.61808355 3.8489291 0)
(-1.2093773 2.9447634 0)
(-1.6451741 2.1073896 7.4151836e-19)
(-3.1390732 3.0910934 -2.7505627e-19)
(-2.8167541 2.2406406 0)
(-2.0833436 1.331121 -7.6774409e-19)
(-0.57893913 -1.7278917 3.0406791e-18)
(-1.5559055 -1.7439114 0)
(-2.2778999 -1.4486871 -7.5840767e-19)
(-2.594058 0.07642907 0)
(-2.6773681 -1.3460027 7.6351223e-19)
(-2.8024909 -0.46826488 7.6704592e-19)
(-2.0301926 1.3165468 0)
(-1.4797482 0.60231266 8.2890564e-19)
(-1.308895 0.17113356 9.1319395e-19)
(-1.1837958 -0.015512036 6.403889e-24)
(1.5843609 -0.91021427 4.7433034e-20)
(0.61340498 -1.0458457 4.9066404e-19)
(1.0966939 -0.84681496 0)
(1.5095616 -0.39057725 1.0349652e-19)
(-3.0569591 3.2218811 0)
(-2.5162476 3.9523224 -8.3390961e-19)
(-1.8627836 4.6615856 0)
(-1.106996 5.3413251 0)
(-0.37862647 5.8822819 1.2368721e-18)
(0.15694932 6.1270669 -3.8812434e-18)
(0.49814379 5.9635939 -2.5105535e-18)
(0.39488726 5.402158 -6.7248554e-21)
(-0.22659163 4.4911536 0)
(-0.89186107 3.5575626 0)
(-1.4063785 2.6676303 -7.4072275e-19)
(-1.7941053 1.8608821 0)
(-3.2610685 2.5168537 0)
(-2.9287292 1.7398895 -5.7203925e-19)
(-2.1629591 0.95502701 1.4629073e-18)
(0.017361402 -1.1414946 2.3012258e-19)
(-0.7820462 -1.2006762 -2.7166329e-19)
(-1.5415859 -1.082552 1.2620111e-18)
(-2.4623028 0.48381171 2.5502702e-20)
(-2.6591484 -0.90146972 -2.3051076e-20)
(-2.8223333 -0.6047721 0)
(-2.2255894 1.0659729 7.9843663e-19)
(-1.5748759 0.37348165 -8.295842e-19)
(-1.4168366 0.044795138 -6.3633996e-24)
(-0.78457101 -0.00031814103 -7.9535381e-19)
(1.4838292 -0.65356283 1.9965444e-20)
(0.24573946 -0.91590718 -4.3642534e-19)
(0.70269226 -0.88624563 -3.4167598e-19)
(1.1341362 -0.67380402 -1.9424758e-19)
(1.2161959 -0.23864158 -2.0336232e-20)
(-3.0427522 2.7952563 0)
(-2.4269572 3.4800991 8.3390329e-19)
(-1.8047244 4.2298971 0)
(-1.1048603 5.0158617 7.3835522e-20)
(-0.34265467 5.6913057 -1.99507e-18)
(0.15053717 6.0969674 1.1641204e-18)
(0.53641312 6.1210436 3.1546416e-20)
(0.40896029 5.7168201 2.2101914e-21)
(-0.17919887 4.8886883 0)
(-0.7502097 3.9460865 0)
(-1.2140886 3.0279596 -1.077442e-20)
(-1.5878321 2.1693958 0)
(-3.4531058 2.1867392 4.3817945e-19)
(-3.3746094 1.5799003 5.7205546e-19)
(-2.7177682 0.93814309 -6.9423606e-19)
(-0.33850651 -1.0049691 2.736811e-19)
(-1.015824 -0.96282366 -5.8780238e-19)
(-1.6110145 -0.76387059 -6.5722598e-19)
(-2.6062287 0.23121243 -8.3094523e-19)
(-2.077627 -0.74965421 2.3155444e-20)
(-2.6639794 -0.21144249 8.039684e-19)
(-1.9887467 1.3366037 -8.0067947e-19)
(-1.9501216 0.36895432 1.0214052e-23)
(-1.5334722 0.019683674 0)
(-1.1761939 -0.069553609 7.9746519e-19)
(0.2561973 -0.69144854 1.6981199e-19)
(0.63741483 -0.63419818 -1.929189e-19)
(0.97500318 -0.49695955 -1.1011536e-19)
(1.3238403 -0.09351032 0)
(1.0154931 -0.34763514 -1.9890664e-20)
(-3.1922185 2.1312309 -1.3128523e-23)
(-2.6485913 2.7719532 0)
(-2.0419393 3.4891908 0)
(-1.4199021 4.3030066 9.1562682e-20)
(-0.64389705 5.1981913 1.1946729e-18)
(0.043675957 5.7900359 3.6523976e-18)
(0.54466925 6.1289325 1.3343776e-18)
(0.6637319 6.046296 -4.002996e-19)
(0.27527783 5.4726816 -2.2133961e-21)
(-0.34699431 4.5359617 -5.5345315e-19)
(-0.901409 3.5778063 -5.9335812e-19)
(-1.2940555 2.6761269 1.0787692e-20)
(-1.7060634 1.8198384 0)
(-3.4718747 1.5764586 -4.3896483e-19)
(-3.3035862 1.0595966 0)
(-2.6144555 0.55062605 5.8523645e-19)
(-0.16282432 -0.68402885 0)
(-0.63864729 -0.61946874 9.5568601e-20)
(-1.0987907 -0.48577189 0)
(-2.3542081 0.50588381 0)
(-1.9905146 -0.42773538 7.683246e-19)
(-2.2993338 -0.27468318 -7.6943876e-19)
(-2.1159367 0.98856928 0)
(-1.8881704 0.13783533 0)
(-1.5097012 -0.077069101 7.2325001e-19)
(-0.67629921 -0.022779361 0)
(0.32853598 -0.57872095 1.167273e-20)
(-0.039344939 -0.58563531 -1.6326731e-19)
(0.69946509 -0.49437652 3.4347227e-19)
(0.94089014 -0.047787391 5.6807832e-20)
(0.83245525 -0.22617095 1.9426667e-20)
(-2.983825 1.4996113 3.2534452e-19)
(-2.4596388 2.125863 3.282571e-19)
(-1.9275874 2.8468942 -1.9219963e-24)
(-1.3727583 3.6979638 -3.6763595e-20)
(-0.61676223 4.693764 -6.8372608e-19)
(0.0071971674 5.4113147 -1.5393078e-18)
(0.58071589 5.9803922 0)
(0.69233361 6.0285306 8.7005738e-19)
(0.37609142 5.5802966 4.3083371e-19)
(-0.13098667 4.7600019 5.5625621e-19)
(-0.58670755 3.791428 1.1091459e-18)
(-0.97754454 2.8606028 4.7769497e-21)
(-1.3886206 1.9762809 5.630751e-21)
(-3.3738951 1.0173698 -1.0399948e-23)
(-3.433967 0.66505949 0)
(-2.9367979 0.34398587 -5.8524472e-19)
(-0.4296424 -0.5400144 4.1340202e-19)
(-0.82868285 -0.44530936 -5.1057595e-19)
(-1.1786079 -0.29148083 0)
(-2.1990916 0.27434655 8.2595635e-19)
(-1.4558658 -0.27236698 0)
(-2.0916528 -8.7973698e-06 -1.2486567e-20)
(-1.7969044 1.1285545 7.670714e-19)
(-2.1810083 0.032468366 0)
(-1.6096179 -0.15550709 -7.2324796e-19)
(-1.0473405 -0.12431524 -7.9972345e-19)
(0.27159421 -0.36947258 -1.1517968e-20)
(-0.076619408 -0.36835426 2.7502373e-19)
(0.58971414 -0.31985923 -1.5317211e-19)
(0.87226945 -0.10763588 -3.3420363e-20)
(0.629228 -0.21585528 0)
(-3.054876 0.82712294 -3.2587551e-19)
(-2.5999096 1.3757621 -3.2874556e-19)
(-2.0708594 2.0660039 -4.944122e-24)
(-1.5706442 2.8299047 -1.2909668e-19)
(-0.95459943 3.7791463 3.5493169e-19)
(-0.11260067 4.7864561 9.9379166e-19)
(0.35519871 5.5013326 -5.3653909e-19)
(0.89599615 5.911036 4.0268297e-19)
(0.81425753 5.7762721 -4.2592922e-19)
(0.35346622 5.1592521 3.7407865e-19)
(-0.17821949 4.2648089 -5.1858522e-19)
(-0.61405955 3.3229806 2.1070936e-21)
(-1.0401089 2.4190318 -4.784151e-21)
(-1.5091987 1.5697157 -7.7281232e-19)
(-3.3211681 0.46006662 0)
(-3.2403039 0.22295823 -4.357893e-19)
(-2.699141 0.024854985 0)
(-0.41998322 -0.33033935 3.4781332e-19)
(-0.7333972 -0.25461054 1.054134e-18)
(-0.99467284 -0.14269529 6.7813198e-19)
(-1.9065835 0.45763823 6.4636484e-21)
(-1.409045 -0.085062514 -5.8864967e-21)
(-1.6340816 0.0072206288 -7.9648472e-19)
(-1.8136425 0.79999131 -8.2850441e-19)
(-1.9761246 -0.15253402 0)
(-1.4467709 -0.20401762 0)
(-0.48547425 -0.046512587 7.9787614e-19)
(-0.001014394 -0.27650058 7.2052021e-21)
(0.33459016 -0.26444925 1.5520807e-19)
(-0.34061277 -0.25700104 -6.3205296e-19)
(0.52896976 -0.044265349 -3.5846343e-20)
(0.37224051 -0.095176062 -8.6848062e-20)
(-2.7231447 0.071947994 0)
(-2.3497588 0.59137856 2.1151129e-19)
(-1.9160813 1.3052844 0)
(-1.4675538 2.0883096 0)
(-0.94448748 3.058961 -1.0896976e-19)
(-0.086269369 4.1249427 -1.4480773e-19)
(0.49978964 4.9901273 5.3656903e-19)
(1.0418668 5.4694065 -8.7386407e-19)
(1.0431586 5.3692155 0)
(0.70796244 4.9272472 -9.4599925e-20)
(0.26622073 4.1859507 0)
(-0.18181798 3.3097823 0)
(-0.64336229 2.4324074 -4.1881009e-19)
(-1.1316355 1.5903493 0)
(-2.999044 -0.21233999 -8.738591e-24)
(-3.0912783 -0.32469854 4.3578766e-19)
(-2.7652251 -0.3259525 0)
(-0.64815649 -0.21039388 -4.9265894e-19)
(-0.90464797 -0.12965993 -5.5864714e-19)
(-1.0762329 -0.033604599 -6.8036693e-19)
(-1.5904731 0.31681448 8.2624637e-19)
(-1.16017 -0.0047001507 -7.6147238e-19)
(-1.4672991 0.15541775 -2.1274972e-20)
(-1.4745727 0.85496746 -8.2641439e-19)
(-2.1246008 -0.35158055 -1.7553335e-23)
(-1.5044004 -0.33265356 7.6283062e-19)
(-0.80064578 -0.17360006 9.2931195e-19)
(-0.11179189 -0.10531522 -7.1957543e-21)
(0.14095504 -0.10487252 -1.4775936e-19)
(-0.36084347 -0.094818724 3.0908354e-19)
(0.44595475 0.033888151 4.6824473e-20)
(0.25274954 -0.029378969 9.3321186e-20)
(0.061534765 -0.053345996 1.5641916e-19)
(-2.6517093 -0.52325489 -2.4705343e-19)
(-2.4036474 -0.16533752 -4.0571112e-19)
(-2.0300619 0.47238454 0)
(-1.561602 1.273239 0)
(-1.1693764 2.055182 0)
(-0.35575228 3.2235504 -3.5898266e-19)
(0.18195456 4.1957591 0)
(1.1678886 4.9121165 0)
(1.3649223 5.14389 -1.5034195e-22)
(1.156539 4.9937728 -2.7388668e-19)
(0.71262075 4.4345338 -5.8206842e-22)
(0.23637122 3.6474913 2.7084809e-19)
(-0.23800307 2.7994166 4.1877286e-19)
(-0.76975431 1.9571857 0)
(-1.2381437 1.1901948 1.6668759e-18)
(-2.8178409 -0.65006352 0)
(-2.8086561 -0.61866319 0)
(-2.4455862 -0.53859598 1.7509205e-23)
(-0.58632155 -0.071097592 -9.1262204e-19)
(-0.76653571 -0.026903771 5.4830227e-19)
(-0.85417719 0.013135496 7.1711546e-19)
(-1.3279668 0.39596929 8.6827339e-19)
(-1.1337645 0.073922855 7.6622516e-19)
(-1.200208 0.14650775 8.3367177e-19)
(-1.3266393 0.60343682 -8.6505116e-19)
(-1.8123776 -0.4530998 0)
(-1.2175144 -0.31389862 -1.5664198e-18)
(-0.23792784 -0.075214791 -1.9768612e-18)
(-0.12485279 -0.054701734 0)
(-0.30086224 -0.05028254 -3.0864044e-19)
(-0.44563494 -0.044432271 4.2504783e-19)
(-2.3119387 -1.265034 2.4706253e-19)
(-2.0771009 -0.97455239 3.8984462e-19)
(-1.8052481 -0.40986412 3.4339907e-24)
(-1.4353784 0.39863777 0)
(-1.0536624 1.1957573 2.332427e-20)
(-0.36071029 2.3237518 1.0906083e-19)
(0.41245415 3.3838734 0)
(1.3825102 4.1604476 1.2080941e-19)
(1.6655056 4.4911019 2.7651578e-23)
(1.506979 4.4119985 -1.1469692e-19)
(1.1650414 4.0281915 0)
(0.72650862 3.3896022 -2.6842795e-19)
(0.2149464 2.6310338 -1.9600837e-23)
(-0.37065916 1.8584754 0)
(-0.88771559 1.1281929 -8.4466086e-19)
(-2.4821356 -1.3302659 0)
(-2.4739194 -1.1947133 0)
(-2.2701626 -0.96136138 1.4654658e-23)
(-0.53851348 -0.034493409 -6.3514447e-20)
(-0.56318776 -0.017254954 0)
(-0.53838437 0.0012555043 -7.1679179e-19)
(-1.0939578 0.29146419 -2.3223203e-20)
(-0.83986354 0.059712277 -7.9703748e-19)
(-1.0596756 0.17968121 -1.6950855e-18)
(-1.0069849 0.59571723 9.2287704e-19)
(-1.7933895 -0.7159171 0)
(-1.2150276 -0.48547758 8.0305336e-19)
(-0.45047847 -0.20197436 -2.257866e-19)
(-2.1504002 -1.6357969 0)
(-2.0074409 -1.5225617 -1.9621511e-19)
(-1.8278446 -1.1688256 0)
(-1.5112116 -0.46759428 1.0481739e-19)
(-1.0598454 0.39209331 -2.3378576e-20)
(-0.56348901 1.0519556 2.2756074e-20)
(0.11164234 2.3997823 -1.4629236e-24)
(1.2311507 3.4659458 -8.1581923e-20)
(1.8028071 4.0411602 -4.3211293e-20)
(1.8557386 4.1962017 1.6793501e-19)
(1.5733563 4.0109785 0)
(1.1579525 3.5324317 0)
(0.65274285 2.8652381 1.6020922e-22)
(0.044732708 2.126673 -5.5988156e-19)
(-0.55689509 1.4207407 0)
(-0.8910256 0.8121116 -9.2290704e-19)
(-2.2313559 -1.5792526 0)
(-2.1525999 -1.3457635 -1.463135e-23)
(-1.9074438 -1.0229346 0)
(-0.85180524 0.26713979 8.8433443e-19)
(-0.44206235 0.020800431 1.6315599e-18)
(-0.72506607 0.10562709 2.9003175e-20)
(-0.84540926 0.40661652 0)
(-1.4231064 -0.71251248 1.1541772e-23)
(-0.83475137 -0.39441549 7.7355136e-24)
(0.03795637 -0.098464083 1.2751611e-18)
(-1.8164798 -2.2013122 -9.3788704e-24)
(-1.7191685 -2.1690246 0)
(-1.6193426 -1.9306908 0)
(-1.4297455 -1.3564129 4.4857494e-20)
(-0.93766277 -0.45024548 8.6805139e-20)
(-0.4257285 0.30533043 -1.785665e-20)
(0.15085803 1.4250217 -8.4855817e-20)
(1.3991351 2.6244123 -3.9176312e-21)
(2.1060331 3.2781853 4.3182197e-20)
(2.1730193 3.471009 -5.3982661e-20)
(1.961979 3.3984579 -3.7365542e-20)
(1.6056143 3.0628683 0)
(1.0875905 2.5335329 -3.7292698e-23)
(0.42805006 1.9154065 5.6121868e-19)
(-0.21806744 1.253447 -3.0979247e-22)
(-0.55805901 0.72313181 0)
(-1.8786198 -2.0911682 -3.9292985e-19)
(-1.8084087 -1.8303931 0)
(-1.5900506 -1.4286873 0)
(-0.50730762 0.1449907 9.1489449e-19)
(-0.28127597 0.043471388 -8.6236824e-19)
(-0.52813344 0.33165902 9.3182858e-19)
(-1.2572947 -0.9910318 7.2389002e-19)
(-0.7624287 -0.60504205 0)