/*--------------------------------*- C++ -*----------------------------------*\
| =========                 |                                                 |
| \\      /  F ield         | OpenFOAM: The Open Source CFD Toolbox           |
|  \\    /   O peration     | Version:  2112                                  |
|   \\  /    A nd           | Website:  www.openfoam.com                      |
|    \\/     M anipulation  |                                                 |
\*---------------------------------------------------------------------------*/
FoamFile
{
    version     2.0;
    format      ascii;
    arch        "LSB;label=32;scalar=64";
    class       volScalarField;
    location    "0.335";
    object      p;
}
// * * * * * * * * * * * * * * * * * * * * * * * * * * * * * * * * * * * * * //

dimensions      [0 2 -2 0 0 0 0];

internalField   nonuniform List<scalar> 
8100
(
0.0045810572
-0.0068094931
-0.0065909899
-0.014907549
-0.01565177
-0.0064885304
-0.018690545
-0.018417149
-0.022001382
0.0016716164
-0.02371956
-0.01280037
-0.028561061
-0.027992614
-0.026098423
-0.014424832
-0.03343958
-0.031848787
-0.02963023
-0.027122313
-0.030092819
-0.0064121794
-0.043648188
-0.038113385
-0.032267184
-0.027134869
-0.034242477
-0.013645246
-0.043522983
-0.048360113
-0.036541357
-0.030066005
-0.024434454
-0.04690964
-0.028067269
-0.0066346834
-0.049100199
-0.059691487
-0.038876546
-0.029078529
-0.02146378
-0.047845537
-0.037504311
-0.016551457
-0.055802316
-0.04415099
-0.066060759
-0.033031126
-0.023515527
-0.01562672
-0.057397867
-0.033843333
-0.0083176144
-0.059222145
-0.044976511
-0.072536754
-0.069940502
-0.03117051
-0.019079194
-0.0099155627
-0.056320239
-0.044929805
-0.020669234
-0.065300434
-0.050275508
-0.035579783
-0.076381598
-0.073103895
-0.02215496
-0.01101331
-0.0016966979
-0.066565711
-0.039235877
-0.010945581
-0.064988964
-0.048237168
-0.031677621
-0.080990427
-0.079749375
-0.016620373
-0.0037026545
0.0060092095
-0.065354986
-0.049507249
-0.023124855
-0.072340743
-0.054050236
-0.036012229
-0.019637515
-0.083513716
-0.087368805
-0.0057065018
0.0059999289
0.015806961
-0.075655271
-0.043402292
-0.011833308
-0.066712429
-0.04856013
-0.029571984
-0.012324598
-0.087075179
-0.089967669
-0.081151202
0.0026132226
0.015286772
0.024687856
-0.072809217
-0.05252433
-0.023826721
-0.054019857
-0.06968656
-0.034109969
-0.015170664
0.0010070577
-0.080717838
-0.084311522
-0.076687937
0.014372462
0.025696896
0.035214808
-0.07246874
-0.044339629
-0.012139004
-0.044606531
-0.061153478
-0.024729472
-0.0057841626
0.010600578
-0.079529033
-0.076148932
-0.081369602
-0.069768242
0.024431382
0.03598713
0.044451831
-0.05725126
-0.044546368
-0.017648318
-0.028816035
-0.047019308
-0.060068265
-0.0087424568
0.0092590803
0.024139059
-0.068608998
-0.067536304
-0.068218296
-0.062867451
0.036127615
0.04632225
0.054810938
-0.054363018
-0.034354079
-0.0095016421
-0.017261024
-0.036228696
-0.049530685
0.0024823448
0.02013833
0.034901191
-0.060859869
-0.055299578
-0.061740835
-0.050588462
0.046923903
0.056673652
0.063651146
-0.045211316
-0.031467638
-0.010541773
-0.00055822677
-0.020406275
-0.037500568
-0.046950312
0.01859735
0.034891469
0.047808652
-0.047658758
-0.044807439
-0.041522139
-0.044416491
0.057784424
0.06617271
0.07302249
-0.036692265
-0.022799885
-0.0060479128
0.011260942
-0.0083964356
-0.024922699
-0.033368575
0.030158239
0.046174753
0.058786685
-0.033517663
-0.024558247
-0.041682648
-0.02604858
-0.033922528
0.068413038
0.075753153
0.080825965
-0.025111732
-0.014906498
-0.0026569248
0.028021806
0.0080063242
-0.011813728
-0.026294361
-0.031127958
0.045863324
0.059939725
0.070353083
-0.017311139
-0.0065922883
-0.020785724
-0.0055878239
-0.023910871
0.077740606
0.083715731
0.088503903
-0.010585562
-0.0064838672
-0.0014229522
0.03925991
0.019616557
0.00055892003
-0.013404322
-0.021017299
0.056789389
0.070710848
0.08071368
-0.0019903717
0.011135922
-0.011838654
0.0044944764
-0.016633864
0.087387923
0.091802592
0.094628948
0.0015043819
0.0052181268
0.0052423229
0.055518451
0.035301932
0.013355598
-0.0051035407
-0.017427563
-0.017226132
0.071514971
0.082951652
0.090263105
0.014087445
0.028374993
-0.0029700026
0.010632925
-0.0088839198
0.094542932
0.097559291
0.099922453
0.01844085
0.0072589207
0.0041148066
0.066135568
0.045875447
0.023555942
0.0035414338
-0.0095911634
-0.01310806
0.081715241
0.092498808
0.099205481
0.03092211
0.039901033
0.0096199436
0.031476047
0.016947997
-0.0055669618
0.1024548
0.1034938
0.10386968
0.030655586
0.011384457
0.010866572
0.080068758
0.059789018
0.036670249
0.014482404
-0.0034857266
-0.011943406
-0.010336704
0.094262606
0.10246955
0.10618755
0.042177214
0.049770976
0.0083555453
0.039215376
0.025541139
-0.00039800858
0.10685121
0.10646106
0.10614079
0.02875762
0.042948587
0.018568732
0.0053239548
0.090078282
0.06905144
0.043507366
0.017597779
-0.0032832777
-0.012612886
-0.013515532
0.1038671
0.11082753
0.11311321
0.053060713
0.056551133
0.016785611
0.049068586
0.028355239
-0.0038393091
0.11234609
0.10980161
0.10753418
0.030979662
0.049607833
0.031375095
0.014595799
0.099979176
0.08161466
0.05787247
0.031255831
0.0070372141
-0.0089232145
-0.016701379
-0.01337953
0.11196775
0.11715063
0.1168361
0.062294172
0.064922222
0.013419183
0.050325309
0.036845639
0.00033924972
0.11363038
0.10985153
0.10655804
0.044740639
0.063209406
0.029004083
0.0059094123
0.1085076
0.087925338
0.060793315
0.030925544
0.0036653606
-0.015660525
-0.0249629
-0.022534705
0.12045009
0.12414427
0.12160644
0.070731541
0.065625205
0.018852796
0.056827987
0.033039924
-0.0090342302
0.11598495
0.11024457
0.10516923
0.046264215
0.06350945
0.036801735
0.017406821
0.11552436
0.100069
0.076213478
0.046357866
0.015789668
-0.0098815417
-0.026889562
-0.030004188
-0.022697503
0.12314717
0.12501863
0.1211171
0.070071062
0.069704053
0.010090921
0.053101493
0.039799616
-0.0057597226
0.1139131
0.10695602
0.10083277
0.054341383
0.071049298
0.031895532
0.0056187435
0.11966764
0.10164314
0.074657655
0.041791658
0.0087686556
-0.019369501
-0.038083374
-0.042790151
-0.035932271
0.12881282
0.13043926
0.12320628
0.071218823
0.066256568
0.015310912
0.057466215
0.031425463
-0.018806438
0.11339253
0.10403189
0.096439593
0.051837985
0.067938354
0.034976389
0.017239453
0.12407806
0.11203519
0.089453289
0.058151985
0.022864878
-0.010449707
-0.036188598
-0.049008018
-0.048044581
-0.035221341
0.12664369
0.1245872
0.11689336
0.076809909
0.067277765
0.0030637296
0.04938311
0.035857642
-0.014888428
0.10720281
0.097608603
0.088952711
0.058720361
0.061990689
0.02852366
0.005667916
0.12319412
0.10935733
0.08463944
0.050528869
0.013163642
-0.022627981
-0.049653143
-0.06291502
-0.062643623
-0.050047861
0.12744389
0.12510598
0.11591296
0.074810001
0.071191329
0.059362879
0.0077688814
0.051110302
0.024558948
-0.02915566
0.10348633
0.091473767
0.082171996
0.05372989
0.063637937
0.030877396
0.018379599
0.12427948
0.11615149
0.096744749
0.066445077
0.029120177
-0.0098414286
-0.042623808
-0.065333146
-0.072581045
-0.065093998
-0.047315495
0.12302506
0.11569825
0.1051202
0.065277147
0.068124458
0.05906262
-0.0057404751
0.040553178
0.027627471
-0.024236001
0.093606324
0.08238828
0.07205249
0.04612342
0.063101715
0.057049895
0.031379513
0.0051920682
0.1176758
0.10872659
0.088345916
0.056973528
0.018139246
-0.022250953
-0.056960789
-0.079780984
-0.086597937
-0.079307284
-0.061420178
0.11755318
0.11109102
0.10021296
0.064781594
0.060990716
0.048479577
-0.00096539826
0.041273401
0.015288829
-0.037834687
0.086651752
0.073376963
0.063239352
0.035421798
0.060602737
0.048660214
0.01802558
0.11409437
0.11029687
0.095981279
0.070216714
0.034320385
-0.007152151
-0.045873238
-0.076777536
-0.092139645
-0.091400435
-0.077764376
-0.05603814
0.10933536
0.098870297
0.086301992
0.063034176
0.059438972
0.048204469
-0.013966906
0.02906117
0.017711685
-0.031666066
0.073972121
0.062286362
0.05138744
0.031448392
0.060640477
0.053154515
0.040738658
0.01287478
0.10138098
0.097772206
0.084070583
0.058753163
0.022376622
-0.018397449
-0.058356838
-0.089613854
-0.10424994
-0.10309119
-0.089444803
-0.067541341
0.097437763
0.088371839
0.076974058
0.059079589
0.051144179
0.03685776
-0.0092831046
0.030234794
0.0050534731
-0.043187398
0.063974915
0.051149658
0.04136273
0.055565341
0.049078062
0.036566037
0.0096110396
0.026959789
0.092880971
0.093809172
0.085768075
0.067078067
0.036691474
-0.0023168013
-0.0436507
-0.080675532
-0.10418009
-0.11044567
-0.10211538
-0.083514348
-0.059995526
0.085651212
0.074385709
0.061770451
0.055360944
0.048746988
0.036152135
-0.020848013
0.017597091
0.007754251
-0.036346173
0.049979956
0.039173882
0.029018292
0.051490514
0.054619075
0.042715245
0.00026071439
0.025062417
0.074982494
0.076613431
0.070242946
0.053805815
0.024091664
-0.011905482
-0.053549037
-0.089074507
-0.11122546
-0.1173033
-0.10919152
-0.090941176
-0.06799417
0.068239512
0.058834445
0.048353128
0.050875313
0.041140642
0.026232056
-0.016503277
0.01866731
-0.0045363246
-0.04541836
0.037565945
0.026954359
0.018894347
0.048336933
0.051106334
0.039567421
0.015852306
0.032424033
0.062361334
0.067187264
0.066007663
0.05589255
0.034392581
0.0025659509
-0.036609675
-0.074668723
-0.10429264
-0.11821424
-0.11658248
-0.10285435
-0.082181538
-0.059713319
0.054205118
0.044145429
0.033588511
0.047860614
0.038985326
0.025331667
-0.026819599
0.0077006933
-0.0017538985
-0.0392548
0.02405302
0.015540494
0.0074971709
0.049333641
0.043730182
0.049124534
0.010320493
0.030546963
0.040584042
0.046496294
0.047602795
0.040376615
0.022323962
-0.0054746293
-0.044067688
-0.078212609
-0.10523398
-0.11802833
-0.11685312
-0.10428393
-0.085102278
-0.064555592
0.03286516
0.025011985
0.017479058
0.04313194
0.032009786
0.016775948
-0.02251698
0.0082867712
-0.012241458
-0.046151871
0.010391249
0.0035858602
-0.0015007618
0.047348258
0.041679465
0.047475671
0.016471534
0.025152062
0.036901325
0.025368918
0.032678918
0.03757177
0.036675945
0.025628984
0.0057813197
-0.026333097
-0.060445044
-0.092546944
-0.11208342
-0.11761981
-0.11052019
-0.09492527
-0.075811962
-0.057096026
0.018025646
0.011415921
0.004816496
0.042060253
0.031817946
0.017570201
-0.030940682
-0.00082695303
-0.010150189
-0.040622841
-0.00079955471
-0.0056894095
-0.01039382
0.044658997
0.047371104
0.044603223
0.0016671432
0.0099635944
0.017631819
0.020698935
0.014070167
-0.0016023039
-0.029644024
-0.059768422
-0.087209531
-0.10472049
-0.11043053
-0.10491466
-0.091669472
-0.075314335
-0.059519615
-0.0049263937
-0.0091058917
-0.012073213
0.036474743
0.024028688
0.008461353
-0.027535589
0.00097263865
-0.018591036
-0.045634116
-0.014040051
-0.01586327
-0.017034079
-0.013474059
-0.0060072352
0.0029233733
0.010553589
0.012465795
0.0042196382
-0.015995472
-0.041303561
-0.070504975
-0.092724081
-0.1043071
-0.10452795
-0.095801236
-0.082159124
-0.067277436
-0.053187293
-0.018251723
-0.020331349
-0.021037412
-0.033998875
-0.008382957
-0.015909587
-0.041275715
-0.021348875
-0.021544381
-0.021983694
-0.036410857
-0.028307337
-0.016953891
-0.0057081534
0.00085095759
-0.00079189001
-0.015162156
-0.037737974
-0.061008811
-0.079767952
-0.090687441
-0.092231576
-0.08615343
-0.075854198
-0.064583916
-0.053912068
-0.039931076
-0.039256275
-0.036218825
-0.030715599
-0.024198513
-0.044649189
-0.032282801
-0.028422918
-0.025229366
-0.049367163
-0.043563167
-0.032967781
-0.020174446
-0.0084613705
-0.0019290477
-0.00720352
-0.020742348
-0.043162337
-0.064187586
-0.078941914
-0.0854516
-0.08414829
-0.07737192
-0.06799981
-0.058060338
-0.04905158
-0.049739123
-0.045940427
-0.040298572
-0.036698765
-0.041125359
-0.034594792
-0.029464992
-0.025123775
-0.069482188
-0.063297444
-0.050516678
-0.033707828
-0.016419204
-0.0055525937
-0.0053355646
-0.016437712
-0.031276574
-0.047361744
-0.060650535
-0.067978826
-0.069081138
-0.065752139
-0.060360132
-0.054217503
-0.048615779
-0.068346048
-0.061420922
-0.051779431
-0.043707909
-0.041650482
-0.032105297
-0.02443134
-0.078723531
-0.076190112
-0.065407449
-0.048779414
-0.02971804
-0.013399497
-0.0037818144
-0.0038894731
-0.013258805
-0.030274209
-0.045566206
-0.056152208
-0.061402053
-0.061701268
-0.058925013
-0.05432025
-0.04945018
-0.045335881
-0.073116538
-0.062279581
-0.050119026
-0.038333673
-0.028176725
-0.019362612
-0.094198659
-0.091659702
-0.078978721
-0.059308493
-0.03619822
-0.01509602
0.00205113
0.0037876511
-0.001834087
-0.012173235
-0.024649667
-0.035307394
-0.042395088
-0.045827203
-0.046809735
-0.046138748
-0.045068491
-0.043926914
-0.086815007
-0.072656728
-0.05646345
-0.040369423
-0.025825732
-0.014298987
-0.097832397
-0.10080607
-0.09218338
-0.073910768
-0.049909372
-0.025751451
-0.0041365794
0.0069734011
0.011017328
0.0043576291
-0.0082688308
-0.020221865
-0.03015415
-0.036910567
-0.040597975
-0.041897151
-0.041884008
-0.042348814
-0.084890363
-0.066673392
-0.048436011
-0.031485489
-0.017052654
-0.004771267
-0.10705712
-0.11049606
-0.10025487
-0.078945974
-0.051154728
-0.02237934
0.0026239356
0.019170354
0.024260973
0.020894804
0.012587981
0.0011750446
-0.0096007765
-0.01850245
-0.025288261
-0.030140905
-0.033834548
-0.037083783
-0.092033652
-0.070735123
-0.048592291
-0.028002425
-0.0098061318
0.0042927117
-0.10298167
-0.113514
-0.10993393
-0.0928812
-0.065986011
-0.035019677
-0.0055436477
0.017074074
0.030227172
0.034555231
0.027664918
0.016557412
0.0048409987
-0.0061957312
-0.015236274
-0.021943071
-0.026853102
-0.031933449
-0.08237816
-0.057945422
-0.034737511
-0.014306626
0.0028685958
0.017398197
-0.10445059
-0.11568867
-0.11139785
-0.092095371
-0.061664255
-0.026693269
0.0051752641
0.031183738
0.046016511
0.050169592
0.047392526
0.037354891
0.025071073
0.012756344
0.0015684139
-0.0079932176
-0.015991841
-0.023301956
-0.081902026
-0.054980476
-0.028798157
-0.0055557142
0.014326846
0.029312371
-0.091911833
-0.11039957
-0.11447699
-0.10211013
-0.075814094
-0.041317014
-0.0063530717
0.025402587
0.047565275
0.059934568
0.060694941
0.051694205
0.039834744
0.026665292
0.014097718
0.0032026545
-0.0058897531
-0.015179571
-0.06495316
-0.036316786
-0.010325349
0.011346614
0.029492587
0.044773719
-0.085136479
-0.10435237
-0.10814317
-0.094524534
-0.065608605
-0.028624823
0.0081922663
0.041259722
0.064684699
0.07625003
0.077377638
0.071484693
0.05909905
0.045029992
0.031049555
0.018095918
0.0067394972
-0.0038899341
-0.05710911
-0.026731449
0.00095566193
0.024216204
0.043837835
0.058339054
-0.0655059
-0.090670158
-0.10338013
-0.098288886
-0.076123606
-0.042036859
-0.0045956414
0.031959213
0.061506275
0.08077082
0.089237258
0.084578686
0.072917457
0.059280407
0.044751651
0.031111891
0.01894065
0.0063534968
-0.034513638
-0.0040937075
0.021713224
0.042526799
0.060100401
0.074721971
-0.051969701
-0.077004165
-0.089308064
-0.084339022
-0.060844185
-0.026031079
0.012372001
0.04983494
0.079759098
0.098078991
0.10362987
0.10137824
0.090697389
0.076215854
0.060831783
0.045835587
0.032306157
0.019336784
-0.020283126
0.010426066
0.036424241
0.05789124
0.07578434
0.08868728
-0.027371936
-0.057315401
-0.076970211
-0.080685128
-0.066211902
-0.038040373
0.00041233848
0.038836674
0.072837016
0.097551937
0.11157364
0.11367054
0.10331844
0.089710388
0.074609439
0.059520174
0.045475111
0.030790504
0.0050122723
0.033908924
0.057460588
0.076066523
0.091821085
0.10465101
-0.0091720094
-0.039349082
-0.058889006
-0.062306232
-0.047497463
-0.019886542
0.017856715
0.056845349
0.090879382
0.11422703
0.12572481
0.12540824
0.11860263
0.10467606
0.088988264
0.073152203
0.058608452
0.044379637
0.022496585
0.050554454
0.07375039
0.092348524
0.10738272
0.11788609
0.016636748
-0.015227535
-0.040871332
-0.0532219
-0.048162075
-0.028254577
0.0069357645
0.04414643
0.08106182
0.10948474
0.12812025
0.1358728
0.1303173
0.11657285
0.10190945
0.086481874
0.07168293
0.056116493
0.047295625
0.073245658
0.093658041
0.10911531
0.12202795
0.13224235
0.035212474
0.0042744137
-0.021964774
-0.034205628
-0.028959631
-0.010040829
0.02279482
0.060142257
0.096151824
0.12405283
0.14066891
0.1445183
0.14013257
0.12881647
0.11382883
0.098235494
0.083721456
0.069325691
0.065019177
0.090333832
0.110056
0.12492385
0.1362111
0.14383117
0.060277936
0.02898494
-0.00080459826
-0.02140342
-0.027945639
-0.014619396
0.013022404
0.045781831
0.083565289
0.11575614
0.13820264
0.14942156
0.1508042
0.13917123
0.12495943
0.11029985
0.095765349
0.08048949
0.088564399
0.11105793
0.12764638
0.13920996
0.14845061
0.15560135
0.076892548
0.046175189
0.017751213
-0.0027337548
-0.011993114
-0.0019217127
0.024123907
0.056880472
0.093511814
0.12520467
0.14705453
0.15604207
0.15470889
0.14731975
0.13393624
0.11949291
0.10593547
0.092419027
0.10487974
0.12692931
0.14287141
0.15332773
0.1602402
0.16466849
0.10108728
0.069654033
0.037157499
0.01017329
-0.0066718935
-0.0029329708
0.013719155
0.041993938
0.078439382
0.11236333
0.13952129
0.15556838
0.1617065
0.15626739
0.14269799
0.12947907
0.11615789
0.10229248
0.1263981
0.1451011
0.15718304
0.164241
0.16919871
0.17297499
0.11528206
0.08381922
0.051097144
0.023271252
0.0067530466
0.0044991251
0.018714901
0.045400567
0.080827899
0.11487768
0.14229816
0.15812652
0.16113735
0.15756343
0.14786086
0.13548841
0.1237713
0.1121557
0.14055691
0.15879688
0.16985014
0.17556991
0.17771308
0.17895299
0.1351731
0.10408539
0.070039191
0.038308796
0.015532701
0.0053756087
0.011605395
0.031163905
0.062416787
0.097289526
0.12879957
0.15111396
0.16186474
0.1646618
0.15409383
0.14254088
0.13153151
0.12001355
0.15911654
0.17345039
0.18045739
0.18249609
0.18267403
0.18274482
0.14864356
0.11620277
0.078732905
0.042006476
0.015058433
0.0047487774
0.007678401
0.027452057
0.057349754
0.09237567
0.12460384
0.14800677
0.15818612
0.15922403
0.15400515
0.14499443
0.1360912
0.1270053
0.17204467
0.18498875
0.19008108
0.19011596
0.18752021
0.1850196
0.16273772
0.13377916
0.09836992
0.060513761
0.029146541
0.0097050922
0.0015134039
0.011902697
0.037428599
0.070380296
0.10499275
0.13392066
0.15230097
0.16045293
0.15748173
0.14853269
0.14060863
0.13220472
0.18272346
0.1938445
0.19597914
0.19291289
0.18833813
0.18411448
0.17223992
0.13987767
0.10092542
0.060164135
0.023949232
-0.0012631344
-0.010561436
-0.0011418463
0.024026992
0.058039683
0.093941907
0.12437285
0.14386134
0.15084344
0.15106517
0.14713294
0.14148294
0.13594607
0.1941345
0.20402375
0.20276435
0.19641406
0.1889648
0.1824831
0.18375818
0.15758475
0.1214606
0.080021816
0.03971428
0.0062933311
-0.013286754
-0.012593333
0.0028913241
0.033243099
0.069093384
0.10363444
0.13018273
0.14568175
0.15135142
0.14745183
0.14266901
0.13844489
0.19865614
0.20354373
0.20145614
0.19419517
0.18502614
0.17665018
0.18659913
0.15793726
0.11901684
0.074415322
0.031129755
-0.0053641958
-0.028251039
-0.030989369
-0.016090359
0.014565951
0.052358968
0.088732597
0.11717301
0.13275335
0.13928248
0.14099872
0.13974493
0.13825921
0.20428263
0.20980484
0.20574561
0.19417809
0.18113912
0.17066353
0.19602065
0.17374607
0.13916029
0.095723875
0.049528706
0.006809381
-0.025131368
-0.039904296
-0.033846395
-0.011032618
0.024035766
0.062488297
0.096478282
0.12059972
0.13432723
0.13779822
0.13712698
0.13745248
0.20564052
0.20372254
0.19634656
0.18525333
0.17235041
0.16001448
0.19142536
0.16739333
0.13119144
0.086103462
0.03875339
-0.0062675691
-0.040017991
-0.057022037
-0.053314237
-0.031255549
0.0041368563
0.044267899
0.079966842
0.10505369
0.11877564
0.12661997
0.1304068
0.13324301
0.20289895
0.20280314
0.19541836
0.1811149
0.16405507
0.15055616
0.19613911
0.17842441
0.14779832
0.1060427
0.058456894
0.010581471
-0.030140617
-0.058763328
-0.067093443
-0.054119375
-0.024435035
0.014585781
0.053951949
0.086115789
0.10802702
0.11949655
0.12405824
0.12882902
0.20012673
0.19290612
0.1806432
0.16609911
0.15066932
0.13557732
0.18344272
0.16605569
0.13556718
0.09379018
0.045410047
-0.004011894
-0.045939151
-0.075202908
-0.084181972
-0.072125945
-0.04316739
-0.0041504747
0.036264711
0.069156408
0.090755626
0.1046638
0.11391362
0.12077251
0.18820904
0.18338934
0.17235674
0.15669137
0.13800607
0.12291396
0.18041821
0.16960472
0.14629146
0.11043509
0.064675044
0.014983014
-0.03118741
-0.068887797
-0.089571626
-0.089609181
-0.068806198
-0.03348458
0.0073369069
0.045374301
0.074419457
0.093541917
0.10406136
0.11340911
0.1801727
0.16960708
0.15406803
0.13736359
0.12093093
0.10483779
0.16046877
0.15144221
0.12983397
0.095242064
0.05113312
0.0020461385
-0.045021735
-0.083491316
-0.1050881
-0.10454976
-0.083903609
-0.049229648
-0.0090340883
0.029205599
0.057305606
0.07686724
0.091110719
0.10200396
0.15936115
0.15060331
0.13774088
0.12222829
0.10468137
0.090287861
0.14993755
0.14687065
0.13298573
0.10646838
0.068090316
0.021228985
-0.026686621
-0.071270687
-0.10189903
-0.11356137
-0.10373926
-0.075274702
-0.036824751
0.0031299686
0.037136805
0.062268687
0.07846292
0.092058164
0.14459365
0.13320288
0.11737601
0.10132197
0.085994604
0.071218515
0.12300355
0.12265928
0.11205073
0.08888552
0.052931526
0.0099595015
-0.037377538
-0.081112455
-0.11292372
-0.12438777
-0.11395988
-0.086091084
-0.048751494
-0.010553104
0.022151997
0.045960659
0.064019634
0.078220052
0.11636913
0.10603372
0.094133046
0.081453348
0.067711306
0.056681172
0.10533705
0.10996632
0.10666946
0.092260738
0.064992212
0.026910817
-0.017763371
-0.063393771
-0.10180111
-0.12393727
-0.12542937
-0.10597994
-0.072777171
-0.034816591
0.00058051246
0.029231869
0.04969299
0.066599847
0.096563258
0.085887162
0.073837016
0.061745999
0.050288275
0.039539341
0.072674481
0.080499299
0.081536051
0.072352399
0.048724756
0.017058816
-0.02614679
-0.066776506
-0.10444104
-0.12737131
-0.12832447
-0.10974785
-0.078332412
-0.042736623
-0.010068483
0.015661796
0.035618325
0.051750021
0.062632171
0.053507093
0.045966595
0.039324813
0.032368167
0.027156478
0.050099512
0.060537598
0.067687062
0.06673057
0.053419261
0.029339756
-0.0069210054
-0.046684987
-0.086903038
-0.11674957
-0.12942164
-0.12090485
-0.095838536
-0.062749201
-0.029588163
-0.0010221702
0.021231432
0.039795408
0.040111327
0.032950745
0.028627056
0.024244936
0.019637776
0.015300072
0.013742403
0.027533353
0.040153042
0.045188664
0.038277507
0.020227156
-0.011004495
-0.044700804
-0.080486941
-0.10962282
-0.1216642
-0.11481592
-0.092711387
-0.063338177
-0.034435652
-0.0098385447
0.0096288548
0.025749077
0.0033935094
-0.0006917913
0.00055620159
0.0029650203
0.0051568631
0.0074666589
-0.010523666
0.0025265297
0.0179075
0.03047728
0.034047009
0.02598184
0.0038532145
-0.024450435
-0.059818812
-0.090595972
-0.1113996
-0.11517689
-0.10118424
-0.076466953
-0.049151003
-0.023890315
-0.0028785738
0.014995911
-0.017387635
-0.016340364
-0.010469847
-0.0044650958
-0.0002511398
0.0034672479
-0.045968458
-0.030383632
-0.010103009
0.0082922186
0.018819887
0.019309747
0.002646268
-0.018837949
-0.046794692
-0.074609656
-0.09406292
-0.098208171
-0.087872629
-0.068045748
-0.046399088
-0.026325823
-0.0099489266
0.0038490481
-0.051889846
-0.046383384
-0.033697934
-0.020211136
-0.0082697824
0.0012659105
-0.066932401
-0.055061117
-0.035616203
-0.014121143
0.0050153637
0.015810015
0.0104008
-0.002939659
-0.026104197
-0.052285888
-0.074669564
-0.087621495
-0.085914267
-0.072559501
-0.054383447
-0.035364009
-0.018474403
-0.0041092616
-0.066477145
-0.053215192
-0.034713448
-0.018148629
-0.0051110615
0.0056437764
-0.097213706
-0.08400578
-0.059992461
-0.031748662
-0.0061598055
0.0091866187
0.012434505
0.0015874494
-0.01075972
-0.03052194
-0.050243459
-0.062007878
-0.063217504
-0.055195054
-0.043210661
-0.030538204
-0.01948966
-0.010311879
-0.094049849
-0.075220071
-0.049577997
-0.025599913
-0.0053134668
0.0098653137
-0.11033016
-0.10426299
-0.083926295
-0.056422439
-0.02791088
-0.0038763225
0.013376424
0.015759622
0.0071243476
-0.010239083
-0.027640964
-0.043345826
-0.051567295
-0.050342808
-0.042874182
-0.032965865
-0.022664266
-0.014070344
-0.097276429
-0.069545563
-0.039138673
-0.014011531
0.0054236948
0.02101846
-0.12965092
-0.12400934
-0.10081286
-0.068913861
-0.034909789
-0.0054773001
0.019215771
0.024842596
0.023377997
0.01456438
0.00033692378
-0.013355803
-0.02253836
-0.025756767
-0.024375258
-0.02095068
-0.017247778
-0.013696987
-0.11286461
-0.079515691
-0.043154313
-0.012175146
0.013101228
0.031260434
-0.12964609
-0.13575895
-0.12009722
-0.090552498
-0.056083531
-0.023081676
0.0071815587
0.025655948
0.037331252
0.032976049
0.021957291
0.0091262815
-0.0036177431
-0.012450363
-0.016176818
-0.016127786
-0.014005817
-0.012542945
-0.10087833
-0.060609503
-0.022788317
0.0068185527
0.029254434
0.047283882
-0.13387565
-0.1414474
-0.1241993
-0.092083056
-0.054782869
-0.017558514
0.015601125
0.040723734
0.052130859
0.055660032
0.050081253
0.038930055
0.026660547
0.015826822
0.0076345408
0.001696746
-0.002491587
-0.0058273648
-0.10144212
-0.05757951
-0.016133505
0.017040301
0.042975888
0.061316915
-0.11702118
-0.13924933
-0.13500323
-0.10901635
-0.073033391
-0.034684399
0.0021799234
0.03432526
0.055679516
0.068873617
0.067243597
0.059459369
0.047468034
0.034001152
0.022222788
0.013092002
0.0069100712
0.00079223496
-0.075630518
-0.029246536
0.010169464
0.039342987
0.061801204
0.080117117
-0.10514575
-0.12855333
-0.12547298
-0.099885921
-0.062913826
-0.022591521
0.016696602
0.051159502
0.074559085
0.089377294
0.094124277
0.087682936
0.07586577
0.061671081
0.047497249
0.034222324
0.022950199
0.012952921
-0.062808214
-0.015541494
0.024309093
0.054637135
0.078905067
0.095996175
-0.076393383
-0.11104261
-0.1217514
-0.1074712
-0.076029781
-0.037242635
0.0026986551
0.041837398
0.073712864
0.097155586
0.10639529
0.10442286
0.095486771
0.081159135
0.065161828
0.050116466
0.037319789
0.024298038
-0.029533303
0.015723801
0.051253092
0.077450932
0.098440857
0.11549147
-0.054196289
-0.08833756
-0.10096599
-0.089837393
-0.059826843
-0.020404017
0.02156922
0.062361487
0.096956924
0.11847104
0.12984374
0.13134899
0.12168716
0.10687143
0.089749919
0.072061602
0.055856342
0.040595923
-0.0084536498
0.034392537
0.06869334
0.095266662
0.11661195
0.13165814
-0.020962268
-0.061482498
-0.084997845
-0.085358121
-0.064953593
-0.031162488
0.0090511434
0.050550351
0.089881678
0.12028424
0.14129471
0.14405422
0.13822513
0.12574681
0.10850875
0.090188744
0.073136963
0.055045771
0.024637323
0.063612156
0.094060811
0.11676641
0.13540217
0.15043153
0.0042287631
-0.035097215
-0.059552454
-0.062920903
-0.045380217
-0.011889903
0.029459555
0.073099432
0.11207714
0.14208567
0.160632
0.16756555
0.16221208
0.14861553
0.13086812
0.11119916
0.092369053
0.073715898
0.046508448
0.083202475
0.11250934
0.13500405
0.15304262
0.16582365
0.035758639
-0.0057119198
-0.036888234
-0.050280901
-0.042844403
-0.017946176
0.018334741
0.06087863
0.10237507
0.13884838
0.1656507
0.17962332
0.17543371
0.16512813
0.14896892
0.12970825
0.11053072
0.089648313
0.075985129
0.10932958
0.135121
0.15430264
0.17027116
0.18299756
0.057603843
0.018033205
-0.013354791
-0.028730124
-0.022900333
0.00088718432
0.037604153
0.081846329
0.12599117
0.16216983
0.18532778
0.19653533
0.19722068
0.18527273
0.16823981
0.14846583
0.12893975
0.10883016
0.095586515
0.1275685
0.15268
0.17157338
0.18641063
0.19696534
0.085917643
0.04671669
0.011300946
-0.011375226
-0.016062871
-0.0020392397
0.027678595
0.068333947
0.1127922
0.15364177
0.18499668
0.20543364
0.20893346
0.19873099
0.18438639
0.16585231
0.14635228
0.12476376
0.12156391
0.15052797
0.17251456
0.18851006
0.20162398
0.21192344
0.1024803
0.064814239
0.029629843
0.0059978413
0.00085778891
0.01433867
0.043789015
0.085410763
0.13188976
0.17513088
0.20417631
0.21874315
0.22272979
0.21580682
0.20015402
0.18151651
0.16275461
0.14295768
0.13759326
0.16646317
0.18832983
0.20411411
0.21574636
0.22392755
0.12844812
0.091087328
0.054183518
0.024333126
0.0091531271
0.011090378
0.034267978
0.070057402
0.11478026
0.1601748
0.19750062
0.22142758
0.23400915
0.22680263
0.21314788
0.19663995
0.17820529
0.15772286
0.16125284
0.18697445
0.20578227
0.21867262
0.22856344
0.23611637
0.14022184
0.10276862
0.066575777
0.039277383
0.022294902
0.022838498
0.043135066
0.07970608
0.12598367
0.17385945
0.21327804
0.23283895
0.23999376
0.23881494
0.225492
0.20866861
0.19170062
0.17373212
0.17350101
0.20009781
0.21957571
0.2322661
0.24034121
0.2456124
0.16522466
0.12797948
0.088523654
0.054625131
0.028310423
0.022541898
0.033906875
0.062417341
0.10456514
0.15254189
0.19714681
0.22885997
0.24519016
0.24975902
0.23517676
0.22062719
0.2043441
0.18642348
0.1959432
0.21935879
0.2349251
0.24421908
0.25014893
0.25423122
0.17358429
0.13539394
0.096456621
0.061722212
0.035621494
0.02771993
0.03584652
0.063628148
0.10577474
0.15571931
0.20352187
0.23616223
0.24492446
0.25178079
0.24318887
0.22860679
0.2142103
0.19933053
0.20553889
0.23007888
0.24617979
0.25539663
0.25905447
0.26076749
0.1952889
0.15644483
0.11496224
0.075825188
0.044018462
0.028745049
0.028905102
0.047935848
0.08248759
0.12884976
0.1784999
0.22048513
0.2452533
0.26127175
0.25077366
0.23657786
0.22332436
0.20914134
0.22697851
0.2478864
0.2597154
0.26422201
0.26476985
0.26493288
0.20385201
0.16408606
0.11969945
0.0765025
0.042019035
0.022370776
0.021851223
0.038541982
0.072437905
0.12012458
0.17323249
0.21966229
0.24355587
0.25211562
0.25012653
0.24031988
0.22887646
0.21805554
0.23603394
0.25736962
0.26890563
0.27239054
0.26972973
0.2677791
0.22093243
0.18263637
0.13868167
0.092962409
0.055786042
0.030164224
0.016617946
0.022040104
0.046105424
0.087663383
0.13953835
0.19140466
0.23001661
0.25060904
0.25573055
0.24373286
0.23382791
0.2244931
0.25080632
0.27154619
0.27911034
0.27759938
0.2713261
0.26653582
0.22714062
0.18409466
0.13619349
0.088516304
0.047063346
0.016720922
-0.0011949469
0.00084475522
0.024632456
0.068206969
0.12310801
0.179411
0.22147261
0.23759488
0.24414415
0.24178662
0.23480389
0.22857642
0.26036559
0.28228385
0.28764306
0.28109871
0.27260914
0.26466461
0.24289194
0.20424408
0.15688369
0.1094458
0.062593356
0.024583214
-0.0021085985
-0.010772031
0.00082141708
0.032457366
0.082812391
0.14047301
0.19275307
0.22765686
0.2431143
0.24193385
0.23533089
0.23109917
0.26945709
0.28904224
0.28903548
0.27969259
0.26777196
0.25714108
0.24315501
0.20056315
0.15031558
0.099598673
0.050522922
0.0090949069
-0.021999782
-0.036379704
-0.028783164
0.003154581