/*--------------------------------*- C++ -*----------------------------------*\
| =========                 |                                                 |
| \\      /  F ield         | OpenFOAM: The Open Source CFD Toolbox           |
|  \\    /   O peration     | Version:  2112                                  |
|   \\  /    A nd           | Website:  www.openfoam.com                      |
|    \\/     M anipulation  |                                                 |
\*---------------------------------------------------------------------------*/
FoamFile
{
    version     2.0;
    format      ascii;
    arch        "LSB;label=32;scalar=64";
    class       surfaceScalarField;
    location    "0.335";
    object      phi_0;
}
// * * * * * * * * * * * * * * * * * * * * * * * * * * * * * * * * * * * * * //

dimensions      [0 3 -1 0 0 0 0];

oriented        oriented;

internalField   nonuniform List<scalar> 
11923
(
-0.00010045329
-7.1388485e-06
-9.331444e-05
-0.00032757353
0.00032043468
-9.331444e-05
-4.7818628e-05
-0.0002797549
-4.9808626e-05
-9.0233102e-06
-8.429113e-05
0.00042271521
-0.00047053383
-0.00028877821
-0.00058083271
-8.429113e-05
-0.0001581175
-6.6186269e-05
-0.00040434756
-2.4995777e-05
-0.00026378243
-2.8875699e-06
-8.140356e-05
-0.00057767779
0.00041956029
0.00047097018
-0.00053715645
-0.00042934334
-0.00026667
-8.140356e-05
-0.00010670761
-0.00024947357
-0.00050395528
-3.3201169e-05
-2.888241e-05
-0.00040046093
-9.5618753e-06
-0.00025710813
1.7483056e-06
-8.3151865e-05
-0.00048796068
0.00038125307
-0.00063641684
0.00038694327
-0.00053283769
0.00063310993
-0.0006663111
-0.00041002281
-0.00025535982
-8.3151865e-05
0.00014514925
-0.00025516377
-0.00038571509
-2.6162698e-05
-0.00050667499
-0.00060160542
-6.4705672e-05
-1.0275086e-05
-0.00039974772
1.5777288e-06
-0.00025693755
5.3410633e-06
-8.8492928e-05
0.00056688128
-0.00042173203
0.00031171751
-0.00074071318
0.00035499809
-0.00062776812
-0.00051695008
-0.00074227404
0.00067756836
-0.00039816999
-0.00025159649
-8.8492928e-05
-0.00071345609
0.00029172406
-0.00042899567
-0.00053165939
-2.0280172e-05
-0.00060748795
-3.1281336e-06
-0.00051382194
-0.00071506779
-2.7206243e-05
-3.5887726e-05
6.1331897e-06
-0.00040430318
1.0341743e-05
-0.00026193823
7.813771e-06
-9.6306699e-05
0.00075014152
-0.00045841746
0.00032114585
-0.00088681411
0.00035515472
-0.00073534797
-0.00061061608
-0.00050768875
0.00095910704
-0.00098631328
0.00072276354
-0.00075865126
-0.00039396144
-0.00025412446
-9.6306699e-05
0.00026434608
-0.00056566826
-0.00065933658
-2.3626275e-05
-0.00071172169
1.0389454e-05
-0.00062100554
1.9117715e-05
-0.00052680647
0.00020045577
-0.00079096687
-0.00019534642
1.9780557e-05
-0.00041374199
1.6936549e-05
-0.00027106101
9.1804451e-06
-0.00010548714
0.00093778385
-0.00067343777
0.00037211559
-0.0010416589
0.00038232232
-0.00081459314
-0.00070133224
-0.00060188782
-0.00050702591
0.0011869611
-0.00098650529
0.00062903929
-0.00082438571
-0.00039680545
-0.00026188056
-0.00010548714
0.00051352329
-0.00066954331
-0.00076052671
-0.00082301362
8.4204805e-06
3.5234709e-05
-0.00073656695
4.2019069e-05
-0.00064390689
3.7699484e-05
-0.0005447254
-0.0012631512
0.0002766459
-0.0006341119
-0.00087444184
5.0056131e-05
3.0126343e-05
-0.00042693179
2.1230898e-05
-0.00028311146
9.5240016e-06
-0.00011501114
0.0011082137
-0.00059469036
0.00043867035
-0.001170813
0.0004102863
-0.00078777891
-0.00086602136
-0.00069454788
-0.00060620741
-0.00051459905
0.0012132463
-0.00093660044
-0.00095945753
0.00032534564
-0.0009094014
-0.00040570089
-0.00027358746
-0.00011501114
-0.0011127836
0.00051809327
-0.00073214267
-0.00084948036
-0.00086639046
7.8611545e-05
-0.00095757166
9.1550303e-05
7.5644872e-05
-0.00077019275
6.500853e-05
-0.00067121594
5.0662277e-05
-0.00056526133
0.0001004627
-0.0012697177
0.00033311727
-0.00094437207
-0.0010750753
0.00016567391
3.6602974e-05
-0.00044230386
2.3063007e-05
-0.00029665046
8.9063455e-06
-0.00012391749
0.0011742756
-0.00065618236
0.00044213296
-0.0012752969
0.00042581656
-0.00079074558
-0.00087896012
-0.00098352501
-0.00070518422
-0.00062055366
-0.00052865836
0.0010406616
-0.00094019886
0.0013045603
-0.00097144301
-0.0014038086
0.00045943652
-0.0012381347
-0.00041924086
-0.00028774412
-0.00012391749
0.0003844792
-0.00083316395
-0.00091801349
-0.00090844898
0.0001177034
-0.0010072854
0.00012832528
-0.0011013415
0.00011781647
0.00010025337
-0.00080543759
7.8925962e-05
-0.00069947962
5.7766163e-05
-0.00058642452
0.00036436142
-0.0014475746
0.00047613157
-0.00098813805
-0.0011734094
-6.4725246e-05
3.9093083e-05
-0.00045833394
2.2468338e-05
-0.00031021245
7.4395943e-06
-0.00013135708
0.0012774772
-0.000892998
0.00044431325
-0.0013693829
0.00045136942
-0.00080819561
-0.000889582
-0.0009730162
-0.001055593
-0.00072651163
-0.00064171346
-0.00054733144
0.0013380215
-0.00097366011
0.0014462035
-0.0009700719
-0.0016210643
0.00063292621
0.00095023186
-0.0010149571
-0.0004358656
-0.00030277286
-0.00013135708
0.00044502353
-0.00092506966
-0.00093503714
-0.00094988015
0.00014168455
-0.0010541771
0.00016459512
-0.0011475753
0.0001745591
-0.0012117326
0.00015613967
0.00011360348
-0.00084011511
8.5012954e-05
-0.00072672641
5.9270738e-05
-0.00060660217
0.00047254336
-0.0015324031
0.00056233123
-0.00067083241
-0.00089947692
-0.0012087666
0.00019380946
3.7697348e-05
-0.00047356295
1.9628042e-05
-0.0003224009
5.2858344e-06
-0.00013664292
0.0014367395
-0.00099171595
0.00051166981
-0.0014513265
0.00051628931
-0.00083627667
-0.00091249257
-0.00098298018
-0.0010371735
-0.0010526269
-0.00075510216
-0.00066745567
-0.00056890483
0.0014816296
-0.0010090862
0.0014812686
-0.00091893733
-0.0011930748
0.00052224235
-0.0016431226
0.00074364568
-0.0009992653
-0.00045393491
-0.00031711507
-0.00013664292
0.00048991364
-0.00093965664
-0.00087479898
-0.00099038017
0.00015410349
-0.0011004052
0.00018791264
-0.0011957103
0.00021273008
-0.0012632075
0.00022603393
-0.001298146
0.00024551907
0.00011797575
-0.0008730779
8.4082824e-05
-0.0007515385
5.5473298e-05
-0.00062437812
0.00047218232
-0.001456399
0.00053746167
-0.0011208802
-0.00071275332
-0.001304136
0.00030487071
3.2652623e-05
-0.00048658753
1.4852543e-05
-0.00033196761
2.6152414e-06
-0.00013925816
0.0016623088
-0.0011723951
0.00072265212
-0.0014159091
0.00054111015
-0.00087240442
-0.00094630172
-0.0010077976
-0.0010504774
-0.001072112
-0.0010586169
-0.00078899508
-0.0006960652
-0.0005917255
0.0014826769
-0.0010104946
0.0014183048
-0.00088084317
-0.001370752
0.00024987172
0.00057173687
-0.0012844902
-0.0010658813
-0.00047173499
-0.00032935237
-0.00013925816
0.00031028179
-0.00069325701
-0.00082190568
-0.0010262142
0.00015380978
-0.0011391212
0.00019281944
-0.0012325254
0.00022472775
-0.0012985931
0.00024811571
-0.0013352295
0.00026311749
-0.0013392908
0.00028067388
0.00011319042
-0.0009021855
7.6602693e-05
-0.00077266789
4.673855e-05
-0.00063846405
0.00040781026
-0.0013076196
0.00042677642
0.0013396089
-0.0010897372
-0.00073588272
5.5118726e-05
-0.0013432648
0.00027738351
2.4356297e-05
-0.00049609128
8.5110116e-06
-0.00033786338
-3.2909339e-07
-0.00013892906
0.0013753014
-0.0010650197
-0.0012742323
0.00058097534
-0.0012765173
0.00045461165
-0.00091302379
-0.00098531138
-0.0010397059
-0.0010738654
-0.0010871138
-0.0010761733
-0.0010625909
-0.0008255828
-0.00072592934
-0.00061410775
0.0013782335
-0.0009704232
0.001330535
-0.00090375855
-0.0013189777
0.00022924046
-0.001046802
0.00031091928
-0.00099168328
-0.0010415941
-0.00048758027
-0.00033819247
-0.00013892906
0.0001010691
0.0003132138
-0.00069554199
-0.00082749025
-0.0010467928
0.00013376897
-0.0011557149
0.00017040352
-0.0012440307
0.0002043248
-0.0013085125
0.00023464711
-0.0013456009
0.00025848711
-0.0013513017
0.00027512842
-0.001342776
0.00028018515
9.6529254e-05
-0.00092211206
6.1774333e-05
-0.00078770368
3.3590632e-05
-0.00064769839
0.00036011177
-0.001213655
0.00030989642
0.0012222856
-0.0009930451
-0.00090273569
0.00023060229
-0.0013094243
0.00026783012
1.3376258e-05
-0.00050095653
1.0384122e-06
-0.00033923089
-3.5791506e-06
-0.00013534991
0.0010543943
-0.00095332525
0.0012697997
-0.00095658588
0.00035885236
-0.0011930173
0.00036552701
-0.0009502635
-0.0010219459
-0.0010736272
-0.0011041877
-0.0011109538
-0.0010928146
-0.0010676476
-0.0010292391
-0.00086033772
-0.00075411304
-0.00063432213
0.001322511
-0.00096239918
0.0012539903
-0.00094409384
-0.0012439773
0.00025093216
-0.0011579571
0.00025522144
-0.00092735484
-0.00097614714
-0.00049991812
-0.00034281004
-0.00013534991
0.00031647443
0.00036592508
-0.0008341649
-0.00079566931
-0.0010396997
8.9436231e-05
-0.0011405685
0.00011862257
-0.0012248265
0.00015119934
-0.0012896508
0.00018546315
-0.0013298261
0.00021887224
-0.0013416171
0.00024880246
-0.0013327905
0.00026514287
-0.0012955428
0.00026630365
6.2779513e-05
-0.00092311724
3.789137e-05
-0.00079200441
1.5961747e-05
-0.00065028387
0.00029159108
-0.0011487379
0.00020464403
0.001164663
-0.00091373083
-0.00089351644
0.00023730815
-0.0012324301
0.00025628296
5.7469245e-07
-0.00050049281
-7.1058024e-06
-0.00033570423
-6.6777683e-06
-0.00012867215
0.0011817621
-0.00086528772
0.0012687772
-0.00090285214
0.00034759725
-0.0011080566
0.00031238725
-0.00097692022
-0.0010511323
-0.001106204
-0.0011384515
-0.0011443629
-0.0011227448
-0.001083988
-0.0010303999
-0.00096612644
-0.00088522587
-0.00077604267
-0.00064970918
0.0013776343
-0.0010860433
0.0011117744
-0.00090713042
-0.001151251
0.00023752021
-0.001094649
0.00020113253
-0.00085734082
-0.00089496809
-0.00050759861
-0.000342382
-0.00012867215
0.0004034895
0.00047478221
-0.00076045932
-0.00070688373
-0.00100362
2.6699774e-05
-0.0010989696
4.783738e-05
-0.0011839892
7.7785225e-05
-0.0012531787
0.00011472721
-0.0012981426
0.00015377973
-0.0013146302
0.00019188534
-0.0013074319
0.00022344385
-0.0012697497
0.00023934981
-0.0012057053
0.0002395789
1.3093915e-05
-0.00089831978
2.8641607e-06
-0.00077890683
-6.4002824e-06
-0.0006433089
2.5731186e-05
-0.0010242646
0.00011713415
0.0010629946
-0.00082547441
-0.00082313204
0.00020565381
-0.0011228532
0.0002278851
-1.34183e-05
-0.00049418031
-1.5015931e-05
-0.00032736607
-9.3862691e-06
-0.00011928588
0.0011008913
-0.00069740183
0.0012462348
-0.00077145257
0.00034043201
-0.00095021109
0.00024332736
-0.00099052608
-0.0010722699
-0.0011361518
-0.0011753935
-0.0011834154
-0.0011608505
-0.0011155465
-0.0010463058
-0.00096635554
-0.00088327429
-0.00089545562
-0.00078530711
-0.0006567272
0.00092345975
-0.00089772857
0.00092051295
-0.0008033788
-0.0010292262
0.00020375176
-0.00097457892
0.00015144688
-0.00076892511
-0.00080134107
-0.00050919624
-0.00033675234
-0.00011928588
0.00054883295
-0.0010367106
0.000265258
-0.00060977908
-0.00063077166
-0.00094803181
-4.2494271e-05
-0.0010423202
-2.9949625e-05
-0.0011310614
-5.0903784e-06
-0.0012061595
3.0766008e-05
-0.0012575895
7.4174085e-05
-0.0012794633
0.00011861281
-0.0012753509
0.00015980434
-0.0012362645
0.00018995867
-0.0011699544
0.0002035989
-0.0010856382
0.00020236391
-4.4123983e-05
-0.00085133164
-3.8713204e-05
-0.00074659391
-3.2510088e-05
-0.00062421711
-0.00011325082
2.2784386e-05
-0.00088515806
8.1779262e-05
0.00093307937
-0.00072932762
-0.00073371118
0.00016415427
-0.00099001112
0.00018867005
-2.7979981e-05
-0.00048121626
-2.2032644e-05
-0.0003147197
-1.1343582e-05
-0.00010794229
0.00081420445
-0.0002653715
-0.00062004187
0.00088529986
0.00020442537
-0.00076936901
0.00013859735
-0.00099215579
-0.0010848145
-0.0011610111
-0.0012112499
-0.0012268235
-0.0012052892
-0.0011567381
-0.0010764602
-0.00097999577
-0.0008820393
-0.00078764721
-0.00089004484
-0.000779104
-0.00065219709
0.00065227507
-0.00076552589
0.0007671276
-0.00074434322
0.00077754014
-0.00069576088
-0.00089110638
0.00016177877
-0.00084396775
0.00011025656
-0.00067981348
-0.00070243633
-0.00050324891
-0.00032606328
-0.00010794229
-0.00086554234
0.00060017084
3.2233206e-05
1.9757522e-05
-0.00056494364
-0.00057973058
-0.00088381777
-0.00010833802
-0.00097919811
-0.0001056164
-0.00107163
-8.9381071e-05
-0.0011520846
-5.9165208e-05
-0.0012100002
-1.6823303e-05
-0.0012373599
3.2070706e-05
-0.0012389307
8.2192644e-05
-0.0012004885
0.0001240283
-0.0011308635
0.00015086777
-0.0010442525
0.00016221318
-0.00094761012
0.0001599629
-9.8443427e-05
-0.00079160142
-7.9499059e-05
-0.00069960494
-5.8739854e-05
-0.00059345724
1.601715e-06
3.3196921e-05
-0.00075522676
5.946588e-05
0.0008008293
-0.00063905054
-0.00064497019
0.00012101582
-0.00084783106
0.00014539473
-4.164274e-05
-0.00046160617
-2.7512976e-05
-0.0002985503
-1.2266193e-05
-9.56761e-05
3.5227202e-05
-0.00060524866
0.00063748187
-0.00061828531
0.00063804283
-0.00064457611
6.484553e-05
-0.0009822612
-0.0010875361
-0.0011772464
-0.0012414657
-0.0012691654
-0.0012541832
-0.00120686
-0.0011182958
-0.0010068352
-0.0008933847
-0.00078539694
-0.00068786816
-0.00087110047
-0.00075834479
-0.00063509998
0.00062232737
-0.00062072565
0.00064044089
-0.00060724397
0.0006385288
-0.00057906292
-0.00075702413
0.00011797359
-0.00071993826
7.4968063e-05
-0.00059892243
-0.0006116294
-0.00048911914
-0.0003108165
-9.56761e-05
-0.00060934891
1.7078707e-05
1.9196556e-05
2.8693924e-05
0.00056679369
-0.00050194816
-0.00082050512
-0.00016175608
-0.00091791986
-0.00016961627
-0.0010131071
-0.00016413932
-0.001097339
-0.00014412668
-0.0011604208
-0.00010874463
-0.0011921004
-6.2082808e-05
-0.0011986712
-8.188807e-06
-0.0011619874
4.3691518e-05
-0.001090587
8.3751716e-05
-0.0010021083
0.00010872362
-0.00090473609
0.00011933915
-0.00080520297
0.00011733481
-0.00014151599
-0.00072958448
-0.00011219226
-0.00064615253
-7.9875811e-05
-0.00055522417
1.9715236e-05
3.1284838e-05
-0.00062062625
4.1563325e-05
0.00067947466
-0.00056150107
-0.00054565819
8.055223e-05
-0.0007145425
0.0001029131
-5.2163638e-05
-0.0004369555
-3.0702472e-05
-0.00028011402
-1.2027264e-05
-8.3648836e-05
0.00049613892
-0.00047906022
-0.00048357933
0.00050277589
0.00051811839
-0.00048942447
1.2586315e-05
1.6170237e-05
-0.00096202111
-0.0010796759
-0.0011827233
-0.0012614784
-0.0013045474
-0.001300845
-0.001260754
-0.0011701762
-0.0010468954
-0.0009183566
-0.00079601247
-0.00068586382
-0.00059720769
-0.00084177674
-0.00072602834
-0.00060738781
0.00049333697
-0.00047362173
0.00049187356
-0.00046058872
0.00048350814
-0.00044194481
-0.00063850018
7.6999112e-05
-0.00059307753
4.7419341e-05
-0.0005125253
-0.00053558708
-0.00046765798
-0.00029214129
-8.3648836e-05
1.2559592e-05
1.4276755e-05
1.3351417e-05
-0.00036126925
0.00035795439
-0.00034178415
-0.00076484636
-0.00019717475
-0.00086424413
-0.00021543181
-0.00096124815
-0.0002214752
-0.0010468799
-0.00021459847
-0.0011131069
-0.00019144053
-0.0011482458
-0.00015259925
-0.0011585089
-0.00010224512
-0.0011239147
-4.6261423e-05
-0.0010516103
4.7148987e-06
-0.00096198769
4.3631087e-05
-0.00086443275
6.8420279e-05
-0.00076583448
7.9970659e-05
-0.00067584262
7.863493e-05
-0.00016807269
-0.00067370405
-0.00013129409
-0.00059473425
-9.1959445e-05
-0.00051542836
1.8251827e-05
2.2919413e-05
-0.00046804694
2.6102124e-05
0.00056081856
-0.00048381945
-0.00042062759
4.829326e-05
-0.00060071674
6.512966e-05
-5.7347632e-05
-0.00041031034
-3.0833588e-05
-0.0002613077
-1.0478196e-05
-7.317064e-05
-0.00032640091
0.0003389605
0.00033298196
-0.0003187052
0.00034688526
-0.00033353384
-3.3148625e-06
5.1011073e-06
-0.00093291905
-0.0010614189
-0.00117668
-0.0012683551
-0.0013277054
-0.0013396863
-0.0013111082
-0.0012261599
-0.0010978718
-0.00095727279
-0.00082080166
-0.0006974142
-0.00059587196
-0.00052208181
-0.00080499814
-0.0006866937
-0.00057277599
0.00032676907
-0.00030851724
0.00031815589
-0.00029523647
0.00030590836
-0.00027980624
-0.00052789913
4.4079685e-05
-0.00044755781
2.6930214e-05
-0.00039926455
-0.00046276947
-0.00044114393
-0.0002717859
-7.317064e-05
6.5810528e-06
5.4266543e-06
8.0638634e-06
0.00014045742
-0.00014377229
0.00014377229
-0.00013867118
-0.00072152158
-0.00021139747
-0.00082188434
-0.00023953454
-0.00091962699
-0.00025705297
-0.0010057478
-0.00026260729
-0.0010724015
-0.0002553039
-0.001110696
-0.00022899031
-0.0011223837
-0.00018872447
-0.0010920309
-0.000134129
-0.0010202096
-7.7662153e-05
-0.00092938977
-2.7883019e-05
-0.0008311643
1.0362635e-05
-0.00073303154
3.5617347e-05
-0.00064350571
4.7633743e-05
-0.00056857374
4.6491934e-05
-0.00017550131
-0.00062949682
-0.0001347624
-0.0005519313
-9.2955357e-05
-0.00047982064
9.6386443e-06
1.0671889e-05
-0.00029064992
1.0843683e-05
0.00042445582
-0.00038037614
-0.00026371971
2.5191277e-05
-0.00049777937
3.5009904e-05
-5.5812531e-05
-0.0003853314
-2.7464667e-05
-0.00024432123
-7.6690904e-06
-6.5501549e-05
0.00013324452
-0.00012666347
0.00013867118
-0.00013324452
0.00012666347
-0.00011859961
-0.00089702289
-0.0010332818
-0.0011591615
-0.0012628008
-0.0013350088
-0.0013659999
-0.001351374
-0.0012807553
-0.0011543386
-0.0010070519
-0.00085904732
-0.00072266891
-0.00060788836
-0.00052094
-0.00045128744
-0.00076425922
-0.00064488666
-0.00053563317
0.00011859961
-0.00010896096
0.00010896096
-9.8289075e-05
9.8289075e-05
-8.7445392e-05
-0.00040126721
2.0891069e-05
-0.00027373627
1.0016567e-05
-0.000248545
-0.00036625731
-0.00041279607
-0.00025199032
-6.5501549e-05
-0.0006933472
-0.00020367569
-0.00079404429
-0.00023923752
-0.00089113474
-0.00026802679
-0.0009766255
-0.00028617527
-0.0010429054
-0.00029210333
-0.0010828065
-0.00028319338
-0.001095325
-0.000256049
-0.0010722526
-0.00020850271
-0.0010021062
-0.00015223242
-0.0009100361
-9.7015823e-05
-0.00080989142
-4.9155894e-05
-0.00071065437
-1.2014543e-05
-0.00062036698
1.2478619e-05
-0.00054430033
2.3360332e-05
-0.00047325083
2.1963386e-05
-0.00016422182
-0.0006000374
-0.0001229183
-0.00052196836
-8.2733822e-05
-0.00045289934
-8.7445392e-05
0.00025672308
-0.00023583202
-7.7428825e-05
8.1780873e-06
-0.00038051916
1.4261856e-05
-4.7358044e-05
-0.00036543802
-2.0691907e-05
-0.00023129841
-3.8213545e-06
-6.1680195e-05
-0.00085756902
-0.00099771999
-0.0011303723
-0.0012446523
-0.0013290807
-0.0013749098
-0.0013785184
-0.0013283016
-0.0012106089
-0.0010622685
-0.00090690725
-0.00075981026
-0.00063238152
-0.00053182171
-0.00044989049
-0.00035855578
-0.0007229557
-0.00060470218
-0.00050025739
-0.00024126282
5.4308011e-06
-7.7428825e-05
-6.9250738e-05
-0.00022700096
-0.00038612993
-0.00023511977
-6.1680195e-05
-0.00067948372
-0.0001780853
-0.00078103039
-0.00021668959
-0.0008775155
-0.00025285676
-0.0009612925
-0.00028335979
-0.0010267551
-0.00030232561
-0.001067647
-0.00030726282
-0.0010798767
-0.00029864166
-0.0010642497
-0.00026405192
-0.00099829312
-0.00021231577
-0.00090587417
-0.00015639436
-0.00080331271
-0.00010359453
-0.00070171882
-5.8091443e-05
-0.0006089505
-2.3431021e-05
-0.00052976766
-2.0540584e-06
-0.00045627157
6.3810799e-06
-0.00036438843
5.8326516e-06
-0.0001383448
-0.0005846109
-9.9127522e-05
-0.00050557466
-6.318611e-05
-0.00043707128
6.9250738e-05
-6.3819937e-05
-0.00022900053
1.9995724e-06
-3.3039947e-05
-0.00035308998
-1.1118449e-05
-0.00022400132
7.0483427e-07
-6.2385029e-05
-0.00081782852
-0.0009591157
-0.0010942051
-0.0012141493
-0.0013101149
-0.0013699726
-0.0013871395
-0.0013628914
-0.001262345
-0.0011181899
-0.00095970707
-0.00080531335
-0.00066704194
-0.00055319868
-0.00045832563
-0.00035800735
-0.00022316788
-0.00068373842
-0.00056876077
-0.00047011122
-6.3819937e-05
-6.1820365e-05
-0.00036420843
-0.00022329649
-6.2385029e-05
-0.0006789876
-0.00013884092
-0.00078183991
-0.00017727579
-0.00087894053
-0.00021526457
-0.00096116503
-0.00025298423
-0.0010232095
-0.00028690535
-0.0010627776
-0.00030719502
-0.0010755785
-0.00031156098
-0.0010662634
-0.00029662798
-0.0010081592
-0.00025418582
-0.00091715721
-0.00020103272
-0.00081205351
-0.00014765356
-0.00070730763
-9.8005721e-05
-0.00061052773
-5.6514213e-05
-0.00052640612
-2.6792553e-05
-0.00044831977
-1.0005862e-05
-0.0003544911
-3.5162439e-06
-0.00022129217
-1.875716e-06
-0.00010084917
-0.00058288925
-6.5977454e-05
-0.00050278332
-3.6841396e-05
-0.00043326983
-6.1820365e-05
-1.4543706e-05
-0.00034966473
2.4635753e-07
-0.00022354284
5.6325618e-06
-6.8017591e-05
-0.00077983677
-0.00092068082
-0.0010562163
-0.0011764296
-0.0012761938
-0.001349683
-0.0013827736
-0.0013778244
-0.0013047872
-0.001171343
-0.0010130862
-0.00085496119
-0.00070853345
-0.00058292034
-0.00047511232
-0.00036449696
-0.00022480841
-6.3696081e-05
-0.00064886671
-0.00053962471
-0.00044781353
-0.00034941837
-0.00021791028
-6.8017591e-05
-0.00069236476
-8.7472009e-05
-0.0007961474
-0.00012453342
-0.00089485136
-0.00016136495
-0.00097825958
-0.00019817002
-0.0010393392
-0.00023685454
-0.001074582
-0.000275101
-0.0010830966
-0.000299677
-0.0010736907
-0.00030413367
-0.0010280913
-0.00027669589
-0.0009429015
-0.00022844154
-0.00083575208
-0.00017733416
-0.00072713063
-0.00012783056
-0.0006250745
-8.3458956e-05
-0.00053445242
-4.8467913e-05
-0.00044979023
-2.5322099e-05
-0.00035175227
-1.2744694e-05
-0.00021909007
-5.7183405e-06
-6.3696081e-05
-5.3183326e-05
-0.00059568338
-2.5608559e-05
-0.00051401615
-6.1548015e-06
-0.00044165873
6.1936163e-06
-0.00035561199
1.2166914e-05
-0.0002300772
9.9585663e-06
-7.7976157e-05
-0.00074554809
-0.00088361941
-0.0010193848
-0.0011396245
-0.0012375092
-0.0013114365
-0.0013581976
-0.0013733677
-0.001332225
-0.0012195974
-0.0010641936
-0.00090446478
-0.00075290506
-0.00061791138
-0.00049825814
-0.00037707437
-0.00023183476
-6.9414421e-05
-0.00062129194
-0.00052017096
-0.00043546512
-0.00034344507
-0.00022011863
-7.7976157e-05
-0.00072099387
-2.4554217e-05
-0.00082498331
-5.8636096e-05
-0.00092432308
-9.5061708e-05
-0.0010080922
-0.00013153232
-0.0010697187
-0.00016779051
-0.0011034898
-0.00020794674
-0.0011090789
-0.00024911871
-0.0010940599
-0.00027930783
-0.0010536056
-0.00027861941
-0.00097764789
-0.0002419495
-0.00087155185
-0.00019264177
-0.00075931331
-0.00014515148
-0.00065151723
-0.00010138783
-0.00055321593
-6.4695452e-05
-0.00046037396
-3.7884177e-05
-0.00035641788
-2.065649e-05
-0.00022289281
-8.9419527e-06
-6.9414421e-05
2.1420588e-06
-0.000623434
1.8599435e-05
-0.00053877039
2.5722308e-05
-0.00046118742
2.6519316e-05
-0.00036996439
2.2942981e-05
-0.00024306161
1.3244474e-05
-9.1220631e-05
-0.00071885181
-0.00084953753
-0.00098295917
-0.0011031539
-0.001201251
-0.0012712803
-0.0013170256
-0.0013431786
-0.0013329134
-0.0012562673
-0.0011135014
-0.00095195507
-0.00079666871
-0.00065460375
-0.00052506941
-0.00039430206
-0.0002435493
-7.8356374e-05
-0.00060483456
-0.00051304808
-0.00043466811
-0.00034702141
-0.00022981714
-9.1220631e-05
-0.00076486322
4.6011405e-05
-0.00086974794
2.0210409e-05
-0.00096936699
-1.3592185e-05
-0.001051743
-5.1410883e-05
-0.0011114763
-8.9774721e-05
-0.0011417838
-0.00012949652
-0.0011437532
-0.00017327242
-0.0011257055
-0.00021747309
-0.0010842362
-0.00024867717
-0.0010159137
-0.00024035358
-0.00091548299
-0.00019801836
-0.0007995464
-0.00015240868
-0.00068600175
-0.00011066696
-0.00057998732
-7.4616435e-05
-0.00047850279
-4.6566623e-05
-0.00036781869
-2.6483363e-05
-0.00023232378
-1.122552e-05
-7.8356374e-05
5.9988495e-05
-0.00066482306
6.1958156e-05
-0.00057500624
5.5303263e-05
-0.00048997137
4.415382e-05
-0.00039117522
3.13765e-05
-0.00026119364
1.5054737e-05
-0.00010627537
-0.00070487472
-0.00082373654
-0.00094915658
-0.0010653352
-0.0011628872
-0.0012315585
-0.0012732497
-0.0012989779
-0.0013017093
-0.0012645909
-0.0011558366
-0.00099756476
-0.00083841042
-0.00069065428
-0.00055311923
-0.00041438532
-0.00025880714
-8.9581894e-05
-0.0006028649
-0.00051970298
-0.00044581755
-0.00035979872
-0.0002461389
-0.00010627537
-0.00082042221
0.00011554749
-0.00092768031
0.00010394378
-0.001028095
7.8938445e-05
-0.0011091432
4.3807988e-05
-0.0011662471
3.3598659e-06
-0.0011913938
-4.0164665e-05
-0.0011856083
-8.7641448e-05
-0.0011627317
-0.0001362462
-0.0011179568
-0.00018375257
-0.0010535343
-0.00021105657
-0.00096273917
-0.0001930974
-0.00084563888
-0.00015192588
-0.00072564849
-0.00011276194
-0.00061193739
-7.8716887e-05
-0.00050202668
-5.1092544e-05
-0.0003845769
-2.9808414e-05
-0.00024644243
-1.236471e-05
-8.9581894e-05
0.00011338917
-0.00071625407
9.9590151e-05
-0.00061929313
7.8720884e-05
-0.00052453843
5.6907167e-05
-0.00041670589
3.6523996e-05
-0.00028266289
1.5306805e-05
-0.00012158217
-0.00070703304
-0.00081213283
-0.00092415124
-0.0010302048
-0.0011224391
-0.0011880339
-0.0012257729
-0.0012503731
-0.001254203
-0.0012372869
-0.0011737957
-0.0010387363
-0.00087757437
-0.00072469933
-0.00058074357
-0.00043566945
-0.00027625085
-0.0001019466
-0.00061666392
-0.00054057224
-0.00046763127
-0.0003801819
-0.00026735609
-0.00012158217
-0.00088142172
0.00017438868
-0.00099128438
0.00017915156
-0.0010920129
0.00016786163
-0.0011725495
0.00014234478
-0.001227924
0.00010548493
-0.0012481858
6.0151906e-05
-0.0012347936
9.0206308e-06
-0.0012055228
-4.485035e-05
-0.001154777
-9.9425941e-05
-0.0010883345
-0.00014895235
-0.0010054604
-0.0001683353
-0.00089510872
-0.00014362755
-0.00076903417
-0.0001085402
-0.0006471121
-7.7587227e-05
-0.00052906426
-5.1679307e-05
-0.00040512285
-3.0546601e-05
-0.00026388322
-1.2367632e-05
-0.0001019466
0.00015533731
-0.00077200123
0.00012587492
-0.00066644716
9.3551105e-05
-0.00056118237
6.402546e-05
-0.00044420735
3.8096682e-05
-0.00030545277
1.4068142e-05
-0.00013565031
-0.00072608441
-0.0008168957
-0.00091286131
-0.0010046879
-0.0010855792
-0.0011427009
-0.0011746416
-0.0011965022
-0.0011996274
-0.0011877605
-0.0011544128
-0.001063444
-0.00091266172
-0.00075565231
-0.00060665149
-0.00045680215
-0.00029442982
-0.00011431424
-0.00064612631
-0.00057289605
-0.00049715691
-0.00040611067
-0.00029138463
-0.00013565031
-0.00094071599
0.00021463158
-0.0010530102
0.00023611446
-0.0011542004
0.00024133906
-0.0012346023
0.00022991437
-0.0012891492
0.00020356992
-0.0013040773
0.00016137635
-0.0012857914
0.0001111498
-0.0012508323
5.4330123e-05
-0.001193153
-6.4743431e-06
-0.0011209427
-6.6817817e-05
-0.0010388892
-0.00011552357
-0.00093979822
-0.0001236458
-0.000814256
-9.8405711e-05
-0.00068408257
-7.156974e-05
-0.00055804952
-4.8601968e-05
-0.00042793253
-2.886962e-05
-0.00028311123
-1.1318589e-05
-0.00011431424
0.00017996283
-0.00082608914
0.0001396015
-0.00071249755
0.00010016151
-0.00059731842
6.5607604e-05
-0.00047171828
3.6235938e-05
-0.00032762057
1.1589101e-05
-0.00014723941
-0.00076075316
-0.00083837858
-0.00091808592
-0.00099326324
-0.0010592348
-0.0011005073
-0.0011244151
-0.0011396825
-0.0011388229
-0.001127417
-0.001105707
-0.0010553218
-0.00093790181
-0.00078248828
-0.00062961926
-0.0004765345
-0.00031198085
-0.00012563283
-0.00068648764
-0.00061233604
-0.00053171082
-0.00043548234
-0.00031603147
-0.00014723941
-0.00099492056
0.0002341674
-0.0011091533
0.00027077473
-0.0012117487
0.0002936628
-0.0012922615
0.0002989983
-0.0013441703
0.00028493556
-0.0013527459
0.00025223853
-0.001332569
0.00020815393
-0.0012925372
0.00015285467
-0.0012283747
8.9551759e-05
-0.001149792
2.2375002e-05
-0.0010641326
-4.1574406e-05
-0.00097171849
-8.3603301e-05
-0.00085674861
-8.1153194e-05
-0.00072156065
-6.0927628e-05
-0.00058752152
-4.2097745e-05
-0.00045150638
-2.502812e-05
-0.000302586
-9.3948514e-06
-0.00012563283
0.00018948866
-0.0008759763
0.00014271877
-0.00075505481
9.9123994e-05
-0.00063083481
6.1870668e-05
-0.00049735301
3.1276778e-05
-0.00034730824
8.1822716e-06
-0.00015542168
-0.0008054319
-0.00087498592
-0.00094097398
-0.00099859873
-0.001045172
-0.0010678103
-0.0010803305
-0.0010843832
-0.00107552
-0.0010602403
-0.0010417576
-0.0010132929
-0.00094035191
-0.00080271384
-0.00064844914
-0.00049360413
-0.00032761412
-0.00013502768
-0.00073325753
-0.00065593081
-0.00056896414
-0.00046607623
-0.00033912597
-0.00015542168
-0.0010451399
0.00023970799
-0.0011616335
0.00028664754
-0.00126286
0.00032188601
-0.0013400649
0.00034146619
-0.0013851469
0.00033997487
-0.0013888082
0.0003209979
-0.0013683504
0.00028801993
-0.0013238796
0.00023949641
-0.0012547765
0.00017925654
-0.0011711575
0.00011091721
-0.0010810625
3.9304862e-05
-0.0009893605
-2.3932396e-05
-0.00088720147
-5.3150437e-05
-0.0007568503
-4.5863541e-05
-0.00061605631
-3.239283e-05
-0.00047429561
-1.9308514e-05
-0.00032081593
-6.7981846e-06
-0.00013502768
0.00018758289
-0.00092084042
0.00013643654
-0.00079236735
9.0764999e-05
-0.00065972914
5.3109379e-05
-0.00051918561
2.3667554e-05
-0.00036279353
4.1244846e-06
-0.00015954617
-0.000857557
-0.00092192547
-0.00097621245
-0.0010181789
-0.0010436807
-0.0010488333
-0.0010473525
-0.0010358597
-0.0010152801
-0.00099190092
-0.00097014528
-0.00095005564
-0.00091113387
-0.00081000074
-0.00066191986
-0.00050668844
-0.00034012444
-0.00014182586
-0.00078440388
-0.00070160236
-0.00060661976
-0.00049551805
-0.00035866904
-0.00015954617
-0.0010893503
0.00023179334
-0.0012059126
0.00028398714
-0.0013017174
0.00032550495
-0.0013703139
0.00035213501
-0.0014035475
0.00035986683
-0.0014041982
0.00035536487
-0.0013847775
0.00033742492
-0.0013377582
0.00030189853
-0.0012669797
0.0002516996
-0.001180986
0.00018908511
-0.0010878007
0.00011765539
-0.00099461838
4.4562743e-05
-0.0009005508
-1.0583071e-05
-0.00078431214
-2.5688602e-05
-0.00064202715
-1.9892709e-05
-0.00049468791
-1.2000529e-05
-0.00033642666
-3.6977884e-06
-0.00014182586
0.00017541909
-0.00095982297
0.00012183479
-0.00082343715
7.5957682e-05
-0.00068257745
3.9788967e-05
-0.00053530702
1.3909497e-05
-0.00037257854
-2.146645e-07
-0.0001593315
-0.00091393125
-0.00097411926
-0.0010177303
-0.001044809
-0.0010514125
-0.0010443314
-0.0010294126
-0.0010003333
-0.0009650812
-0.00092928644
-0.00089871556
-0.00087696298
-0.00085598806
-0.00079489521
-0.00066771575
-0.00051458062
-0.00034842719
-0.00014552365
-0.00083798817
-0.00074747947
-0.00064278848
-0.00052139752
-0.0003727932
-0.0001593315
-0.0011107463
0.00019681509
-0.0012185473
0.00024442806
-0.0013050396
0.00028730933
-0.0013675249
0.00032271594
-0.001399107
0.00034769441
-0.0014017883
0.00035745691
-0.0013820178
0.00035260526
-0.0013342837
0.00033395036
-0.0012638752
0.00029879402
-0.0011771136
0.00024782715
-0.0010822992
0.00018358369
-0.00098727336
0.00011031038
-0.00089690956
4.0921501e-05
-0.00079652571
1.6304991e-06
-0.00066259885
-5.116902e-06
-0.00051116689