/*--------------------------------*- C++ -*----------------------------------*\
| =========                 |                                                 |
| \\      /  F ield         | OpenFOAM: The Open Source CFD Toolbox           |
|  \\    /   O peration     | Version:  2112                                  |
|   \\  /    A nd           | Website:  www.openfoam.com                      |
|    \\/     M anipulation  |                                                 |
\*---------------------------------------------------------------------------*/
FoamFile
{
    version     2.0;
    format      ascii;
    arch        "LSB;label=32;scalar=64";
    class       volVectorField;
    location    "0.335";
    object      U;
}
// * * * * * * * * * * * * * * * * * * * * * * * * * * * * * * * * * * * * * //

dimensions      [0 1 -1 0 0 0 0];

internalField   nonuniform List<vector> 
8100
(
(0.11049154 -0.016578076 8.8211754e-28)
(0.16167502 -0.0098166396 0)
(0.33973674 0.0062797309 -3.8141537e-21)
(0.071539549 0.00048921894 0)
(0.40103811 0.016148892 2.2004393e-21)
(0.42706082 0.02533091 3.5471766e-21)
(0.14869138 0.0010519116 -4.1681309e-21)
(0.53040625 0.027795769 -3.1027717e-21)
(0.30892637 0.007554441 0)
(0.60107525 0.047680534 -7.9269172e-23)
(0.065055618 0.00092980406 4.5959835e-21)
(0.60438496 0.04644944 3.6264817e-21)
(0.56452532 0.0276447 0)
(0.374647 0.0073588311 0)
(0.14006535 -0.0015277926 1.8297728e-22)
(0.69601811 0.062161868 -1.2101675e-21)
(0.65393454 0.039527735 0)
(0.4981127 0.015183001 0)
(0.29425756 0.0011580418 6.3250535e-21)
(0.065344127 -0.00018250054 0)
(0.7043883 0.056595349 0)
(0.76367814 0.085463457 0)
(0.67934086 0.033326322 7.7883426e-23)
(0.54172759 0.011004427 7.7474209e-21)
(0.36080783 -0.0011466372 -6.0728857e-21)
(0.13892137 -0.0038726887 0)
(0.76623143 0.068309366 0)
(0.814998 0.097161795 1.3953609e-21)
(0.63168154 0.016057156 0)
(0.76217248 0.042040515 -9.6619384e-21)
(0.48445946 0.0019548251 -8.3270441e-21)
(0.28819171 -0.0048617542 0)
(0.070081816 -0.0014613803 5.0978219e-21)
(0.78426337 0.060784307 1.3348042e-20)
(0.81533414 0.088920592 -1.8119232e-21)
(0.88203014 0.12282093 0)
(0.66831123 0.005875042 9.7070199e-21)
(0.78802219 0.025946276 0)
(0.5325452 -0.004906281 0)
(0.3563257 -0.0091752607 5.6988228e-21)
(0.14399706 -0.0058599108 -9.2043971e-21)
(0.85896696 0.075139862 0)
(0.86841793 0.093243833 0)
(0.93160126 0.12900352 0)
(0.74722779 0.0046001031 -1.1796769e-20)
(0.62555278 -0.0058801865 -1.9279515e-20)
(0.87676162 0.024018706 0)
(0.48028744 -0.010769987 0)
(0.28997502 -0.0100054 -5.8016979e-21)
(0.078057663 -0.0025113747 4.1568763e-21)
(0.90277764 0.070375223 -9.777243e-22)
(0.92581813 0.11245405 0)
(1.0122893 0.15927663 0)
(0.78617127 -0.012946129 5.8662006e-22)
(0.66810537 -0.018560383 1.0157118e-20)
(0.91246447 0.00069017959 -9.5973894e-22)
(0.91195226 0.054264404 8.6550931e-21)
(0.53306104 -0.019025454 -5.793083e-21)
(0.35963484 -0.015646486 3.3241706e-21)
(0.15390362 -0.0070778559 -3.6791391e-23)
(0.9723934 0.087590286 -1.1047587e-20)
(0.97802942 0.1104013 9.3214562e-22)
(1.0672544 0.1578657 0)
(0.87365224 -0.024030563 -1.3230431e-20)
(0.75074076 -0.026888315 2.1429554e-20)
(0.63030521 -0.025356495 7.2929067e-21)
(1.0248921 -0.011765032 2.873219e-20)
(1.011318 0.049931712 -1.6151719e-22)
(0.48465827 -0.021381133 5.8724852e-21)
(0.2983137 -0.013854239 -3.3258096e-21)
(0.088177198 -0.0032206795 0)
(1.0326451 0.077582224 0)
(1.0589038 0.13410037 0)
(1.1594128 0.19001161 0)
(0.92063295 -0.048695759 2.6247113e-20)
(0.79617569 -0.045289825 -1.2014803e-20)
(0.67799991 -0.038509313 -7.3595296e-21)
(1.0575588 0.021706294 -7.0991463e-21)
(1.0709558 -0.046917735 -1.4544436e-20)
(0.54174421 -0.029964632 0)
(0.36948686 -0.019997768 2.6145069e-22)
(0.16707669 -0.0073977499 -2.4795926e-21)
(1.11534 0.092744994 1.8847706e-20)
(1.1278134 0.12529265 -1.8197679e-21)
(1.2202845 0.1792282 0)
(1.0166512 -0.064733063 -1.504232e-20)
(0.88443489 -0.061578088 -1.150161e-20)
(0.76549976 -0.052180846 -7.1788826e-21)
(0.64388584 -0.040442148 3.5337958e-21)
(1.177538 0.032747605 2.0619375e-20)
(1.1640391 -0.061742535 0)
(0.49593019 -0.028963286 3.4421347e-22)
(0.31184683 -0.016074469 -2.6325946e-22)
(0.099163977 -0.0035379078 7.0903756e-21)
(1.1915466 0.07284354 -1.3520519e-20)
(1.2110511 0.14975649 0)
(1.3067699 0.2110165 0)
(1.0721729 -0.094330508 2.9462939e-20)
(0.93800665 -0.084935756 -1.0576729e-20)
(0.81636621 -0.069431284 1.2206786e-20)
(0.6960818 -0.052554537 -2.2990721e-21)
(1.2484052 -0.0062231537 -2.7271997e-20)
(1.2389307 -0.050842829 -2.0129529e-20)
(1.2042299 -0.096551961 -2.2228282e-20)
(0.55675479 -0.037051342 -3.4516704e-22)
(0.38439638 -0.022106845 0)
(0.18184431 -0.0069535178 -4.579568e-21)
(1.2795355 0.097463594 0)
(1.2808104 0.13720434 0)
(1.3669101 0.19249362 0)
(1.0346426 -0.10594621 -1.2185253e-20)
(1.1717751 -0.11512502 3.3863635e-20)
(0.90807446 -0.089881615 9.2092425e-21)
(0.78960103 -0.069728533 -4.9818486e-21)
(0.66397297 -0.050314544 -1.2623008e-21)
(1.358064 -0.0019283691 1.5130673e-20)
(1.3248147 -0.081531901 2.3786634e-20)
(1.302956 -0.11235533 0)
(0.51253171 -0.033319051 0)
(0.32899758 -0.016600258 6.9597333e-21)
(0.10987109 -0.0034784241 0)
(1.3595804 0.078788716 0)
(1.3618537 0.16174123 -1.0894526e-20)
(1.4420958 0.22206717 0)
(1.0946481 -0.1308849 0)
(1.2248157 -0.14405638 -1.6563106e-20)
(0.96634778 -0.10962912 0)
(0.84450916 -0.084408502 -1.0175101e-22)
(0.71987889 -0.06061129 6.9630794e-23)
(1.3769873 0.042407474 0)
(1.4257225 -0.045911862 -1.6761742e-20)
(1.4074444 -0.087456486 0)
(1.3546488 -0.14636253 -1.5294211e-20)
(0.57616823 -0.040351785 -6.8342939e-21)
(0.40253286 -0.022077101 -7.0093012e-21)
(0.19664809 -0.005904924 4.0605142e-23)
(1.4263523 0.1056728 8.797262e-21)
(1.4298397 0.14116126 1.1508248e-20)
(1.4955998 0.19437413 -1.9886751e-22)
(1.0644171 -0.13437698 0)
(1.1943309 -0.15533903 0)
(1.3254264 -0.16655077 1.6048075e-20)
(0.9409318 -0.10742684 8.040652e-22)
(0.81960071 -0.079735785 -3.3724222e-21)
(0.68821388 -0.055172612 0)
(1.4750356 0.044240503 2.0033913e-20)
(1.5073852 -0.040022652 0)
(1.4772553 -0.13072577 0)
(1.4547895 -0.16393525 1.0890235e-20)
(0.53260713 -0.034535794 6.8558126e-21)
(0.34787065 -0.01559755 -4.0373605e-23)
(0.11926066 -0.0030735113 0)
(1.4879458 0.084937323 -8.8895904e-21)
(1.4908693 0.16336654 2.0676162e-22)
(1.5390709 0.2205681 0)
(1.1287985 -0.15475312 -2.0301513e-21)
(1.2567321 -0.18099258 5.316799e-22)
(1.3840891 -0.19792683 -8.575984e-21)
(1.0022907 -0.12325854 -7.0325789e-22)
(0.87758093 -0.091456923 9.4924485e-21)
(0.74710792 -0.063374973 0)
(1.5228161 0.0062800565 -9.0639833e-21)
(1.561478 -0.08029816 0)
(1.5488289 -0.12811848 0)
(1.5044557 -0.20226886 -1.13812e-20)
(0.59819932 -0.040194072 1.6754001e-22)
(0.42203325 -0.020167283 -1.3989417e-20)
(0.21009038 -0.0044004608 1.5700601e-20)
(1.5354955 0.098588755 1.0588668e-20)
(1.540504 0.13801114 0)
(1.5708434 0.18743342 -2.4109122e-22)
(1.1033523 -0.15013432 2.02099e-21)
(1.2289388 -0.18207232 0)
(1.3538739 -0.2065042 1.6785012e-20)
(1.4677163 -0.21915359 -1.4015293e-21)
(0.9790782 -0.11573733 0)
(0.85264278 -0.083267877 2.9299057e-21)
(0.71462524 -0.055529397 -1.6709975e-22)
(1.5699507 0.018948813 -6.288963e-21)
(1.5963354 -0.07067456 0)
(1.5990355 -0.16834139 -7.9558603e-21)
(1.5677173 -0.21719748 4.9555549e-21)
(0.55430827 -0.03285965 0)
(0.36654472 -0.013278778 3.01542e-20)
(0.12646828 -0.0023956856 -1.5637083e-20)
(1.5755048 0.065743008 -2.3611614e-21)
(1.5700408 0.15467508 2.4324279e-22)
(1.5881807 0.2152777 0)
(1.1706502 -0.16638516 0)
(1.2965459 -0.20285474 -9.3679627e-23)
(1.4169447 -0.23185953 -7.5957959e-21)
(1.5198476 -0.24843141 0)
(1.0428529 -0.12805618 2.0451409e-22)
(0.91317586 -0.092070567 -8.9574221e-21)
(0.77580129 -0.061513007 0)
(1.6010444 -0.01943224 -2.7225034e-21)
(1.6144927 -0.10894953 -2.5088811e-21)
(1.5926857 -0.20697761 2.4934731e-21)
(1.6120215 -0.15649311 1.2563156e-20)
(1.590888 -0.25110969 -6.0270726e-21)
(0.62107471 -0.036913482 0)
(0.44107353 -0.016651834 -1.6209903e-20)
(0.22100179 -0.0025582106 0)
(1.5949644 0.080910315 -6.7539549e-21)
(1.5950212 0.1240622 0)
(1.5995867 0.17908862 9.3829873e-22)
(1.1481342 -0.15642303 -2.0486523e-22)
(1.2727739 -0.19641253 -5.0356319e-23)
(1.3928127 -0.23114952 1.4408779e-21)
(1.4950441 -0.25510535 3.7647054e-22)
(1.5794146 -0.26199258 0)
(1.0200318 -0.11675561 -1.1706188e-20)
(0.88680948 -0.081177011 0)
(0.74145394 -0.051792823 0)
(1.609128 -0.0044440436 2.6108431e-21)
(1.6134633 -0.092731542 0)
(1.6150751 -0.22499976 -2.4316705e-21)
(1.616289 -0.18688163 -2.8308213e-21)
(1.61074 -0.2556332 -6.043105e-21)
(0.57579504 -0.028557677 1.8769499e-20)
(0.38323808 -0.0098974799 0)
(0.13086967 -0.0015128355 0)
(1.6079181 0.045278406 -1.0150019e-21)
(1.6013914 0.14437409 -2.9395108e-22)
(1.5934211 0.20794963 -9.0419056e-22)
(1.2178798 -0.16949759 0)
(1.3433778 -0.21342825 6.2059927e-21)
(1.4561987 -0.25053835 2.7945231e-22)
(1.5451225 -0.27530899 -1.1296802e-22)
(1.6049928 -0.28264343 4.7525889e-21)
(1.0862423 -0.12583603 1.1524177e-20)
(0.94945845 -0.087069701 0)
(0.80418145 -0.055388532 -1.4436126e-22)
(1.6130346 -0.041768981 6.040623e-22)
(1.6078511 -0.12493569 8.4644325e-22)
(1.6140028 -0.22392956 2.318843e-22)
(1.6055462 -0.17075772 -9.2769011e-22)
(1.6176095 -0.27217024 9.1510033e-22)
(0.64300937 -0.030784171 -3.9362236e-20)
(0.45791122 -0.011814775 2.1566337e-20)
(0.22843011 -0.00044050943 0)
(1.6055074 0.067009538 -2.4607641e-21)
(1.6044849 0.11141302 4.7128186e-23)
(1.5890088 0.1718054 0)
(1.1964505 -0.15542365 0)
(1.3225238 -0.20109965 -6.1769071e-21)
(1.4367091 -0.24261288 -1.5721902e-21)
(1.5265624 -0.27275609 1.6466164e-23)
(1.5949723 -0.28663594 -1.2419827e-21)
(1.614385 -0.28579827 7.8854081e-21)
(1.0624242 -0.11138729 1.7205755e-20)
(0.92052702 -0.073901362 -1.9608514e-20)
(0.76697663 -0.044200501 0)
(1.6009155 -0.02461792 -5.9907621e-22)
(1.5812347 -0.10480044 -7.5162141e-21)
(1.6125378 -0.24628947 1.4482707e-21)
(1.5898984 -0.18559347 8.8709573e-22)
(1.610858 -0.2718566 0)
(0.5952012 -0.021906447 2.0664015e-20)
(0.39639725 -0.0057069562 -4.4514612e-20)
(0.13212431 -0.00045753985 0)
(1.5996165 0.030491396 3.4970903e-21)
(1.5900147 0.13574906 0)
(1.5603706 0.20022249 0)
(1.2676746 -0.16412777 0)
(1.3922032 -0.21152933 -1.1851338e-20)
(1.4951891 -0.25242732 6.7975498e-21)
(1.5701266 -0.28164373 -2.0554718e-21)
(1.6131131 -0.29367842 -3.1608172e-21)
(1.6174812 -0.29338923 2.3199252e-21)
(1.1304036 -0.11707667 -1.717817e-20)
(0.9848571 -0.0766961 1.965117e-20)
(0.83051509 -0.04519809 0)
(1.5825931 -0.056475616 3.7889637e-21)
(1.5507386 -0.12680018 8.1240177e-21)
(1.5848881 -0.24028362 3.8167837e-21)
(1.5512842 -0.16420934 -1.0660222e-20)
(1.5733886 -0.21855695 -8.062776e-21)
(1.6030416 -0.28108717 4.2618431e-23)
(0.66220268 -0.022082583 0)
(0.47097086 -0.0059028675 2.2925547e-20)
(0.23172168 0.0016797997 0)
(1.5642231 0.046933634 0)
(1.5715537 0.11922948 -1.9756617e-21)
(1.5323602 0.1729871 -2.0797613e-21)
(1.2438253 -0.1445879 0)
(1.37012 -0.19183336 1.1820084e-20)
(1.4760121 -0.23535272 2.2436172e-21)
(1.5544751 -0.26918614 2.0336695e-21)
(1.6070232 -0.29092714 0)
(1.6151747 -0.29534084 -8.7048376e-21)
(1.6048831 -0.29152625 0)
(1.1034104 -0.099634713 8.1825087e-23)
(0.95225106 -0.061582536 2.4004109e-20)
(0.78943785 -0.033031251 2.4775037e-20)
(1.5375905 -0.03636582 6.1165862e-21)
(1.4990259 -0.10780727 5.8436998e-21)
(1.5580927 -0.25911849 4.0502338e-21)
(1.5119326 -0.17857235 1.6174903e-20)
(1.5222827 -0.21003659 -5.0862673e-21)
(1.5686472 -0.27589894 -2.3561892e-21)
(0.61070327 -0.013214529 -5.826182e-24)
(0.40474188 -0.00084945312 0)
(0.13002314 0.00070911351 2.4451141e-20)
(1.5560635 0.081946506 0)
(1.5303323 0.0063593415 0)
(1.5339782 0.14613287 2.3801435e-21)
(1.4691485 0.18516445 2.0344696e-21)
(1.310871 -0.14351001 0)
(1.429896 -0.18728366 -1.6933804e-20)
(1.5231398 -0.22701535 -8.974627e-21)
(1.5878854 -0.25994381 -5.4992872e-21)
(1.6179683 -0.28333577 -4.4315764e-22)
(1.6160228 -0.29402406 5.2845589e-21)
(1.5954743 -0.29206481 -3.4582929e-21)
(1.170674 -0.099806132 -8.9215728e-23)
(1.0168627 -0.060899585 -2.3988904e-20)
(0.85309417 -0.031238052 -2.4766678e-20)
(1.4934975 -0.065008094 -1.5574277e-20)
(1.4488372 -0.12715651 0)
(1.5042293 -0.24832935 -9.4065338e-23)
(1.4583195 -0.16409395 -1.2468518e-20)
(1.4926984 -0.22330369 0)
(1.5422225 -0.27956979 2.4352076e-21)
(0.67695443 -0.011129822 6.3469152e-24)
(0.47876296 0.00082851543 2.5040186e-20)
(0.23036197 0.0035933465 -4.907982e-20)
(1.5049024 0.094298646 2.3907135e-21)
(1.4761989 0.028538132 -1.220458e-20)
(1.494349 0.12661301 -2.4904004e-21)
(1.4304646 0.15922181 0)
(1.2792998 -0.11751382 8.8979219e-23)
(1.401324 -0.15818641 1.6806154e-20)
(1.4995669 -0.19780165 1.1064947e-22)
(1.5714415 -0.23406342 -1.4974553e-21)
(1.6142245 -0.26584183 4.176831e-22)
(1.6158344 -0.28608271 -2.4284601e-21)
(1.598465 -0.29175926 3.4453646e-21)
(1.5534902 -0.28691734 -1.9559403e-21)
(1.1369745 -0.078291574 0)
(0.97859481 -0.044319819 -2.7146227e-20)
(0.80714692 -0.018737472 -6.3199813e-24)
(1.4300403 -0.041112275 -6.2959938e-21)
(1.3807763 -0.10611526 -1.4043437e-20)
(1.4663672 -0.25435414 0)
(1.4093051 -0.17900096 1.5085958e-20)
(1.4252018 -0.20886384 0)
(1.4817372 -0.26939171 1.0190838e-21)
(0.6206889 -0.0028970011 0)
(0.4073601 0.004314439 5.049039e-23)
(0.12420808 0.0017466865 2.7065759e-22)
(1.4707322 0.069574195 0)
(1.4250653 0.0030478506 1.1240011e-20)
(1.4413222 0.13815039 0)
(1.3321712 0.15415116 0)
(1.3319155 -0.100234 -4.5514534e-23)
(1.4443754 -0.13365451 2.096494e-20)
(1.5323971 -0.16885134 0)
(1.5934574 -0.20427181 1.5584952e-20)
(1.6208352 -0.23771635 0)
(1.6148926 -0.26615113 0)
(1.5866293 -0.28116873 0)
(1.525784 -0.27948879 5.9584482e-21)
(1.1966599 -0.068004824 0)
(1.0405066 -0.038348002 2.7141097e-20)
(0.8696284 -0.014017389 6.8003395e-24)
(1.371129 -0.063932833 6.2866295e-21)
(1.3219666 -0.12352665 0)
(1.3931447 -0.23981459 9.3967304e-21)
(1.3365455 -0.15963816 -2.9767432e-21)
(1.3744916 -0.21785055 -6.0301111e-21)
(1.4400338 -0.26533998 -1.091955e-21)
(0.68581769 0.0014720989 2.6079766e-20)
(0.48046592 0.007918681 -2.5087893e-20)
(0.22419266 0.0055249573 6.5696865e-22)
(1.4076166 0.089263981 0)
(1.3580556 0.031565403 -1.9571879e-20)
(1.3952308 0.11609909 0)
(1.289592 0.13057174 2.7891124e-21)
(1.2903037 -0.069285955 0)
(1.4075646 -0.097544773 -4.3407727e-20)
(1.50369 -0.13045922 0)
(1.5748039 -0.16742903 1.2138729e-21)
(1.6152798 -0.20494739 0)
(1.6172705 -0.23863743 -3.280822e-21)
(1.592163 -0.26518159 0)
(1.5374892 -0.27432698 -1.4137123e-20)
(1.4583822 -0.26862847 -6.6318008e-21)
(1.1526708 -0.043761073 0)
(0.99430486 -0.020442994 2.873084e-20)
(0.81738623 -0.0020993469 -2.7595434e-20)
(1.2926965 -0.030107037 5.6229873e-21)
(1.2477532 -0.098447803 0)
(1.3392736 -0.23885157 -3.803612e-21)
(1.2760898 -0.16959418 -1.5166428e-21)
(1.2943953 -0.19823544 8.0914094e-21)
(1.36075 -0.25059416 5.9982372e-22)
(0.62411775 0.0081537125 -2.607373e-20)
(0.40355779 0.0094055593 2.4050059e-20)
(0.11517186 0.0026919197 2.3581343e-20)
(1.3516104 0.065878417 0)
(1.28652 0.0095842035 2.1001912e-20)
(1.311634 0.11744328 7.8813674e-21)
(1.1704383 0.11528624 -2.7089256e-21)
(1.3253926 -0.035923404 -2.7293474e-20)
(1.4360497 -0.057998848 4.6406547e-20)
(1.526817 -0.088293638 1.8275808e-20)
(1.5911349 -0.12566442 -2.0959406e-20)
(1.6206209 -0.16560664 0)
(1.6141187 -0.20411867 3.1763253e-21)
(1.5780192 -0.23652913 8.3379853e-21)
(1.5080053 -0.25342076 2.882621e-20)
(1.4141156 -0.25300425 -2.8584303e-21)
(1.1964527 -0.020269517 0)
(1.0470753 -0.0064451628 -2.8749882e-20)
(0.87622335 0.0062265123 2.7596702e-20)
(1.2285735 -0.05134275 0)
(1.1807521 -0.11034119 0)
(1.2535377 -0.21966154 0)
(1.1963739 -0.14557422 1.2941702e-20)
(1.2320661 -0.2002689 -7.5054771e-21)
(1.3046957 -0.23857015 -6.0942438e-21)
(0.6875839 0.014525763 2.5018281e-20)
(0.47556412 0.014719114 -4.7034509e-20)
(0.21339884 0.0071832835 -2.1278183e-20)
(1.2704296 0.079288835 0)
(1.1988461 0.031980567 1.8844271e-20)
(1.2508758 0.096743536 -7.6704391e-21)
(1.1255383 0.095540583 1.7142454e-22)
(1.2750887 -0.0045874312 2.7272481e-20)
(1.392768 -0.019915958 -2.3827524e-20)
(1.4940608 -0.046019379 1.0709077e-21)
(1.5711524 -0.08228897 1.1137474e-20)
(1.6144032 -0.12465036 0)
(1.6183017 -0.16609611 0)
(1.5900487 -0.20415957 1.3884747e-21)
(1.5248357 -0.23358035 -2.0561461e-20)
(1.4353016 -0.2445655 -2.9997627e-21)
(1.3296712 -0.23897716 6.0768325e-21)
(1.1430267 0.0035909327 0)
(0.99176697 0.010447369 -8.5090433e-25)
(0.81697171 0.016825943 1.9839786e-25)
(1.1419921 -0.02762821 -3.8932244e-20)
(1.1066054 -0.081741592 0)
(1.1893428 -0.21174414 0)
(1.1305902 -0.15000643 -1.1565826e-20)
(1.1469208 -0.17647913 -4.6557377e-22)
(1.2144576 -0.2207091 4.952258e-21)
(0.62028936 0.019078416 -2.501731e-20)
(0.39342353 0.014037418 2.2988751e-20)
(0.10357761 0.0035059645 2.1228597e-20)
(1.1886514 0.05824834 -1.0137152e-20)
(1.1247202 0.023385917 -2.9942519e-20)
(1.156244 0.088294129 -1.707144e-22)
(1.004318 0.079586483 -2.7572368e-21)
(1.2964583 0.037497825 0)
(1.4123589 0.026450891 1.1242017e-23)
(1.51216 0.0026570909 -3.9651725e-20)
(1.5851407 -0.0334091 1.3038112e-20)
(1.6197521 -0.078317072 4.7095407e-21)
(1.6148202 -0.12504762 -5.6847718e-23)
(1.575585 -0.16781587 -9.386107e-21)
(1.4957289 -0.20068588 2.3682249e-22)
(1.3910989 -0.21750189 1.2410004e-20)
(1.2731163 -0.2170454 -1.2932746e-20)
(1.1705107 0.038190013 0)
(1.0301201 0.033537824 2.7095239e-20)
(0.86759483 0.030097455 0)
(1.1271784 0.0033114142 3.2370347e-20)
(1.0887285 -0.050883877 1.5088861e-20)
(1.0430576 -0.091506617 -1.1771528e-20)
(1.0996702 -0.18943181 0)
(1.0564403 -0.12138304 1.1950012e-20)
(1.0803412 -0.17204518 0)
(1.1498328 -0.20297443 -1.3531254e-20)
(0.68019302 0.027453593 2.2351863e-20)
(0.46415734 0.020619495 0)
(0.19845944 0.0082895696 0)
(1.108899 0.058884674 1.3606968e-20)
(1.0163083 0.023950135 7.2324969e-21)
(1.0944986 0.071120719 0)
(0.96034552 0.065077843 1.3594575e-21)
(1.2401537 0.064730104 0)
(1.363626 0.061306278 0)
(1.4741802 0.044353093 2.0209143e-20)
(1.561217 0.013653814 -1.3035637e-20)
(1.6123375 -0.029707666 5.5048165e-22)
(1.6195162 -0.078246012 0)
(1.5923694 -0.12561777 5.6791757e-23)
(1.5202289 -0.16831354 -2.0045219e-22)
(1.4178488 -0.196958 -2.3671312e-22)
(1.3019729 -0.20685012 1.2901949e-20)
(1.1791127 -0.20150596 8.582249e-21)
(1.1099142 0.057367337 2.6998299e-20)
(0.9680722 0.046135526 -2.710149e-20)
(0.80266699 0.037211985 0)
(1.0054492 0.00045556532 3.4334508e-20)
(1.0005888 -0.032400184 1.4311694e-20)
(0.96862429 -0.064367173 0)
(1.0330493 -0.17608999 0)
(0.99103461 -0.12054851 2.8054193e-22)
(1.0029317 -0.14468883 4.7498141e-21)
(1.05649 -0.18327845 0)
(0.60814722 0.029176564 -2.2356329e-20)
(0.37759487 0.017633344 -1.7765019e-20)
(0.090669385 0.0040864371 0)
(1.0044433 0.046551233 -1.2429798e-20)
(0.949222 0.0093424064 -1.936336e-20)
(0.98439128 0.036001908 9.889516e-21)
(0.99483387 0.062776416 0)
(0.82613703 0.050485757 1.2414188e-21)
(1.2538845 0.1091434 0)
(1.3787075 0.10914042 0)
(1.4896291 0.094651337 0)
(1.5735086 0.065067009 0)
(1.6176081 0.021900173 -5.2626105e-21)
(1.616983 -0.030004679 0)
(1.5788152 -0.083364055 1.158266e-20)
(1.4918245 -0.12969878 0)
(1.375201 -0.16124957 0)
(1.2469998 -0.17626353 0)
(1.1157429 -0.17580553 1.56327e-20)
(1.1249397 0.095730282 -2.6997869e-20)
(0.99198959 0.074896395 0)
(0.84184694 0.054736677 -2.1064684e-20)
(0.96457665 -0.011024253 -2.9644199e-20)
(0.94168967 -0.040712468 0)
(0.90443086 -0.067560474 1.0182724e-20)
(0.95194079 -0.15153595 0)
(0.92316854 -0.090978522 -1.0170049e-20)
(0.9381224 -0.13560193 -4.7767837e-21)
(0.99149907 -0.16216833 0)
(0.6623486 0.039311507 1.8219302e-20)
(0.44666582 0.024935627 1.776523e-20)
(0.18045731 0.0085808146 1.0999423e-25)
(0.94043846 0.047038461 -2.3204085e-21)
(0.84246007 0.0081177363 -2.5248373e-20)
(0.84161995 0.024030638 0)
(0.78605665 0.041513565 -5.5947836e-21)
(1.1930335 0.12758991 0)
(1.3246125 0.13633631 -2.3234455e-20)
(1.4458148 0.1305792 0)
(1.5447426 0.10919407 0)
(1.6071267 0.072259838 -6.3041992e-21)
(1.6210497 0.023176393 -5.6877238e-21)
(1.5984602 -0.031443606 -2.305957e-20)
(1.522575 -0.086087119 -1.1647173e-22)
(1.4088495 -0.12967598 0)
(1.2810982 -0.15557271 0)
(1.1492959 -0.16465349 -1.5615952e-20)
(1.0191161 -0.15963208 0)
(1.0603674 0.10658277 0)
(0.92637786 0.080168091 -2.1087708e-20)
(0.77390879 0.05623858 3.9527865e-20)
(0.84297782 -0.0074054331 1.4152456e-20)
(0.83557088 -0.028100986 1.3122101e-20)
(0.81308387 -0.047099262 -2.0754646e-20)
(0.88917091 -0.13520397 8.1558136e-23)
(0.858381 -0.086875493 2.0591491e-22)
(0.87223729 -0.10690053 0)
(0.90697053 -0.14152669 8.4129022e-21)
(0.58739785 0.037458235 -1.8228491e-20)
(0.35706135 0.01962109 -1.0927958e-25)
(0.077639943 0.0043311569 -1.0628957e-20)
(0.83417103 0.037943774 -4.2338926e-22)
(0.78518213 -0.0010628456 -2.7777002e-22)
(0.78833942 0.014494615 1.2401381e-20)
(0.78822763 0.027146448 9.3322615e-21)
(0.65726873 0.029037646 1.2014269e-21)
(1.204226 0.16785026 0)
(1.3393019 0.17970587 2.3234055e-20)
(1.4610589 0.17688849 0)
(1.556936 0.15816783 1.3996427e-20)
(1.61259 0.12282876 1.2871255e-20)
(1.6191082 0.073976723 1.0688876e-21)
(1.5857416 0.016239652 2.4733229e-22)
(1.4946916 -0.040909658 8.4505236e-23)
(1.3672554 -0.087242988 0)
(1.2286637 -0.11783584 0)
(1.088818 -0.13232139 -3.0378992e-22)
(0.95738985 -0.13263689 0)
(1.0691079 0.14288357 2.0559929e-20)
(0.93967832 0.10942072 2.1088347e-20)
(0.80186916 0.075488968 -1.8450688e-20)
(0.78465422 -0.016948279 -1.3219694e-20)
(0.7708986 -0.033206107 1.1015238e-20)
(0.74561404 -0.04739719 9.4750129e-21)
(0.82235579 -0.10977896 -5.5815735e-22)
(0.77925594 -0.06207569 -2.0679698e-22)
(0.80958376 -0.095928661 4.7567932e-22)
(0.84784513 -0.11960388 -8.436594e-21)
(0.63479971 0.048462306 2.1774231e-25)
(0.42412951 0.027032919 0)
(0.16124518 0.0080397698 1.0657165e-20)
(0.65996071 -0.0035390503 -1.2215408e-20)
(0.6607198 0.0085236947 9.8275547e-21)
(0.65947869 0.018573353 5.9088922e-21)
(0.63165809 0.021441568 0)
(0.60456392 0.020999531 1.2516313e-21)
(1.1400579 0.17545348 -6.5075383e-25)
(1.2808126 0.19589751 0)
(1.4124579 0.20233407 0)
(1.5227652 0.19362164 -5.4996091e-22)
(1.5977579 0.16832787 -1.3308656e-20)
(1.6217702 0.12592996 6.1822896e-21)
(1.606305 0.072467103 1.1352982e-20)
(1.53072 0.012190601 -1.8933217e-20)
(1.4082617 -0.044871916 -8.4621066e-23)
(1.2692555 -0.086873083 -2.5519427e-20)
(1.1275367 -0.11173401 -2.3733678e-20)
(0.98986054 -0.12127637 3.0419012e-22)
(0.87004879 -0.11708127 0)
(1.0031986 0.14368907 -2.0579912e-20)
(0.87333154 0.10588073 0)
(0.73409232 0.070408049 1.2455606e-20)
(0.65676773 -0.014311007 0)
(0.64755118 -0.025040044 1.0881294e-21)
(0.63058194 -0.034023809 0)
(0.76374588 -0.09328506 0)
(0.71233801 -0.057068945 -2.8435591e-21)
(0.73925748 -0.070382227 2.8476836e-21)
(0.77898344 -0.099320812 0)
(0.55944473 0.04260182 0)
(0.3334733 0.01971389 7.5505e-21)
(0.065528386 0.0042176823 0)
(0.59837173 0.00098996805 -6.7948176e-22)
(0.59511458 -0.0084865346 1.1891011e-20)
(0.59910146 0.011328528 -1.7711435e-20)
(0.43397325 0.019428649 -3.1438515e-21)
(0.45659517 0.011639541 -1.2229971e-21)
(1.1528415 0.20727616 1.5388534e-20)
(1.2974374 0.23036326 1.6062137e-20)
(1.4287687 0.24008749 -1.0719257e-25)
(1.5350785 0.23527999 -1.2434261e-21)
(1.6036081 0.21383329 1.3244377e-20)
(1.6193178 0.17368088 -2.6173627e-21)
(1.5941265 0.12059007 0)
(1.5033289 0.059871103 3.7205265e-20)
(1.3682438 0.0023683879 2.4132564e-20)
(1.2200674 -0.043794617 2.5668606e-20)
(1.0715733 -0.074499373 4.9094007e-20)
(0.93286897 -0.090130423 1.5255285e-22)
(0.81609371 -0.09168069 1.1272429e-22)
(1.0108489 0.17272454 -4.4797629e-25)
(0.88135117 0.13076815 0)
(0.75380531 0.088153685 -1.2455783e-20)
(0.58835582 -0.017793466 -1.1122131e-20)
(0.57537655 -0.025792245 1.0068215e-20)
(0.55630739 -0.031677392 0)
(0.6985831 -0.070243699 4.8921142e-21)
(0.60692278 -0.040045816 0)
(0.67540561 -0.060473552 -1.1088638e-23)
(0.72580341 -0.079514063 1.1890268e-20)
(0.60052656 0.052964145 0)
(0.39853829 0.026409024 -7.5504786e-21)
(0.14284235 0.0065613401 -3.0336643e-21)
(0.45804453 -0.0014007955 6.7064729e-22)
(0.45406908 -0.0078771822 -1.0716574e-20)
(0.45895304 0.0049248881 8.462166e-21)
(0.38830961 0.014591655 1.8512805e-21)
(0.38707975 0.0053932866 0)
(1.0865504 0.2035904 -1.5402945e-20)
(1.2356637 0.23443817 -1.6071558e-20)
(1.3768147 0.25285949 -2.4245728e-25)
(1.4964043 0.25747468 -1.2191566e-20)
(1.5834163 0.24786343 -1.2782832e-20)
(1.6200822 0.21838164 1.3586204e-21)
(1.6135696 0.17325975 -8.9579291e-21)
(1.543159 0.11509561 1.5810687e-20)
(1.4169824 0.051803117 -2.4087475e-20)
(1.268454 -0.003945721 2.6508095e-20)
(1.116809 -0.045044985 -2.5499275e-20)
(0.97127897 -0.070465274 9.3394933e-23)
(0.84374098 -0.081332822 -1.5279441e-22)
(0.74529817 -0.077694886 -1.2004731e-20)
(0.94496374 0.16356805 0)
(0.81715838 0.11896418 -7.8073011e-21)
(0.68884484 0.076861008 0)
(0.44640121 -0.013571822 -1.0854276e-20)
(0.43418881 -0.018272965 -1.7244139e-20)
(0.41758581 -0.021359192 -4.7659983e-21)
(0.63951765 -0.056564054 2.6187685e-21)
(0.53280459 -0.034575513 1.4126716e-23)
(0.57912479 -0.042010404 -1.5741326e-21)
(0.66229743 -0.061127032 -7.4834541e-21)
(0.52736622 0.043380271 0)
(0.30915143 0.017696239 0)
(0.055731638 0.0037181635 3.0266783e-21)
(0.38307585 -0.004338894 -3.3260351e-22)
(0.38648001 0.00073750345 -8.5843552e-21)
(0.37618381 -0.0087658564 2.2033585e-20)
(0.21331826 0.010392651 4.265782e-21)
(0.22006617 0.00036514351 5.4260784e-21)
(1.1035078 0.22391864 0)
(1.2556331 0.25722402 8.848809e-21)
(1.3951404 0.27926035 0)
(1.5099468 0.28811154 0)
(1.589455 0.28331668 6.293402e-21)
(1.6174747 0.25775037 -3.5668696e-22)
(1.6022217 0.21652558 8.9583749e-21)
(1.5173985 0.15968407 -3.4035888e-20)
(1.3798388 0.096802337 0)
(1.2243583 0.03930778 -6.3653307e-22)
(1.0674007 -0.006496116 0)
(0.9207563 -0.037777996 0)
(0.79607085 -0.054466947 -2.0371666e-20)
(0.69836057 -0.056594356 0)
(0.95579823 0.18239884 -1.9998544e-25)
(0.8247768 0.13606968 7.8072718e-21)
(0.70452646 0.090184015 0)
(0.36502629 -0.012574584 9.2395786e-21)
(0.34967022 -0.015239196 7.9719109e-21)
(0.33113901 -0.016413955 4.7819506e-21)
(0.55051688 -0.03911783 3.9027887e-21)
(0.3978469 -0.022343056 8.3292731e-22)
(0.50730261 -0.033802171 -2.3555178e-21)
(0.60903843 -0.045475826 -1.1754992e-20)
(0.56397635 0.051404796 -5.2746285e-26)
(0.37262371 0.022787219 -2.4034624e-22)
(0.12724974 0.0041789533 -1.3677414e-21)
(0.21352364 -0.0035745019 3.3225712e-22)
(0.21834726 -0.0017630538 8.0345134e-21)
(0.20556345 -0.005272844 -1.0626146e-20)
(0.155116 0.012109308 -5.568555e-21)
(0.13264833 0.0015114305 -5.8302482e-21)
(0.12476814 -0.00028167435 -8.5038637e-21)
(1.0369617 0.20924219 -3.0355335e-21)
(1.1919791 0.24833888 -1.3627321e-20)
(1.3408578 0.27859236 0)
(1.4688346 0.2964793 0)
(1.5643171 0.30105362 0)
(1.6154748 0.28992099 4.9708248e-22)
(1.6170723 0.25839051 0)
(1.5603142 0.209437 0)
(1.4355483 0.14607677 -9.3024271e-24)
(1.2811154 0.083319173 -2.5786342e-20)
(1.120312 0.029354866 -5.1794363e-23)
(0.96613013 -0.011136098 2.4325805e-20)
(0.83027961 -0.03711177 2.036986e-20)
(0.72317455 -0.047947637 0)
(0.634327 -0.044300382 2.4951779e-20)
(0.89162788 0.16462245 0)
(0.76436794 0.11773184 0)
(0.64420929 0.074083062 5.2613154e-26)
(0.19443497 -0.0066034421 1.8690952e-20)
(0.18027699 -0.0072626574 -7.7187251e-21)
(0.16424054 -0.0072438499 -2.9760284e-21)
(0.48276704 -0.029050185 8.1402374e-21)
(0.31114072 -0.015899037 -8.4915653e-22)
(0.37680935 -0.020925276 3.2779215e-21)
(0.52469154 -0.031257094 -8.1028217e-21)
(0.49519256 0.039147941 0)
(0.28680428 0.013620089 2.7047e-21)
(0.049499001 0.0027645002 4.5108158e-21)
(0.11950921 -0.0010358054 0)
(0.11251429 -0.0018190061 1.0610909e-20)
(0.10354803 -0.0025343048 -9.7733374e-21)
(1.0596572 0.21674317 3.0357377e-21)
(1.2164902 0.25748921 5.2128116e-21)
(1.3620095 0.29111375 9.5880787e-26)
(1.4840397 0.3138266 0)
(1.5712344 0.32343497 2.9437767e-21)
(1.6137335 0.31667034 -4.6313101e-22)
(1.6091702 0.29086852 0)
(1.5383419 0.2435864 1.1236926e-20)
(1.4032594 0.1820684 4.9015821e-24)
(1.2431375 0.11970924 -2.2128842e-20)
(1.0785938 0.063929848 0)
(0.92346653 0.019420855 -2.4362388e-20)
(0.78989331 -0.011450008 1.9228833e-23)
(0.68313202 -0.027498566 0)
(0.58727255 -0.028723701 -1.3251308e-20)
(0.9082666 0.17186258 0)
(0.77603415 0.12542374 0)
(0.66025844 0.080930746 -1.1213158e-25)
(0.092926393 -0.0031634693 -1.1605622e-21)
(0.081707395 -0.0035350326 0)
(0.070705877 -0.0036069659 2.974687e-21)
(0.35665541 -0.017046413 -1.7603809e-21)
(0.14796896 -0.0064931472 -8.5056213e-22)
(0.29166369 -0.013617899 -8.5521736e-21)
(0.46224437 -0.020603157 1.1255866e-20)
(0.52997245 0.043407241 0)
(0.34949138 0.01631544 -2.4641182e-21)
(0.11648026 0.0010084466 1.3330809e-21)
(0.99491543 0.19356696 0)
(1.1530997 0.23703721 -4.4309912e-22)
(1.3064646 0.27627145 0)
(1.4412257 0.30760865 5.388279e-22)
(1.5445236 0.3261096 -2.9442907e-21)
(1.6053741 0.3303861 -3.7986934e-22)
(1.6194858 0.31859491 -5.9497041e-26)
(1.5808813 0.28346882 -2.4446667e-21)
(1.4628209 0.22627396 -1.4650277e-20)
(1.306929 0.16288528 4.137853e-20)
(1.1391459 0.10204702 0)
(0.97638144 0.050353303 0)
(0.83141753 0.0111596 2.2193109e-23)
(0.71443226 -0.013252397 1.7908383e-20)
(0.61701527 -0.022262499 0)
(0.50485099 -0.019213988 -1.1256232e-20)
(0.84737987 0.14798448 0)
(0.72073813 0.10311217 1.1195568e-25)
(0.60565826 0.062254525 0)
(0.27480788 -0.0097147477 7.0376773e-21)
(0.060951347 -0.0033743894 3.6322694e-21)
(0.1331112 -0.0049716544 1.8172416e-21)
(0.33968192 -0.010992377 0)
(0.46705249 0.030066305 -6.4662283e-26)
(0.26914494 0.0078543017 -3.3671506e-26)
(0.047578565 0.0013574888 -4.4764427e-21)
(1.0230348 0.19008339 2.7441228e-25)
(1.182412 0.23364917 0)
(1.3311946 0.27443681 0)
(1.4588085 0.30965646 -3.4176908e-21)
(1.5539263 0.33385647 -8.4440652e-22)
(1.6061961 0.34218486 -2.231717e-22)
(1.6138386 0.33609059 2.47786e-21)
(1.5625581 0.30498404 -1.5260492e-20)
(1.4357723 0.25075376 1.4648784e-20)
(1.2746258 0.18857735 -3.5399248e-20)