/*--------------------------------*- C++ -*----------------------------------*\
| =========                 |                                                 |
| \\      /  F ield         | OpenFOAM: The Open Source CFD Toolbox           |
|  \\    /   O peration     | Version:  2112                                  |
|   \\  /    A nd           | Website:  www.openfoam.com                      |
|    \\/     M anipulation  |                                                 |
\*---------------------------------------------------------------------------*/
FoamFile
{
    version     2.0;
    format      ascii;
    arch        "LSB;label=32;scalar=64";
    class       volVectorField;
    location    "0.335";
    object      U_0;
}
// * * * * * * * * * * * * * * * * * * * * * * * * * * * * * * * * * * * * * //

dimensions      [0 1 -1 0 0 0 0];

internalField   nonuniform List<vector> 
8100
(
(0.11077571 -0.016599073 8.8130016e-28)
(0.1620064 -0.0097915894 0)
(0.34024972 0.0063552337 -3.8349262e-21)
(0.071675487 0.00051055441 0)
(0.401557 0.016313199 2.2146368e-21)
(0.42764184 0.025356081 3.5628981e-21)
(0.14891215 0.0011204008 -4.2124933e-21)
(0.53103022 0.028050121 -3.1123118e-21)
(0.30929357 0.0076956075 0)
(0.60191369 0.047768105 -7.9240164e-23)
(0.065086789 0.00096053108 4.6449126e-21)
(0.60514901 0.04661517 3.6357909e-21)
(0.56507629 0.028013401 0)
(0.37498691 0.0075739431 0)
(0.14013872 -0.0014567239 1.8521981e-22)
(0.69691109 0.062478696 -1.2118421e-21)
(0.65450651 0.040053193 0)
(0.49849595 0.015514347 0)
(0.2944349 0.0013260716 6.4043638e-21)
(0.065265302 -0.00014350798 0)
(0.70514979 0.057116268 0)
(0.7647838 0.085692966 0)
(0.67977973 0.034001756 7.8308615e-23)
(0.54201045 0.011432532 7.8289082e-21)
(0.36094052 -0.00091582509 -6.1489045e-21)
(0.13883185 -0.0038118749 0)
(0.7669577 0.069034332 0)
(0.81602312 0.097711356 1.3967871e-21)
(0.63190503 0.016667159 0)
(0.7625574 0.042953969 -9.7026647e-21)
(0.48459299 0.0023173745 -8.4156713e-21)
(0.28816685 -0.0047030252 0)
(0.069905795 -0.0014278698 5.2360929e-21)
(0.78475698 0.061698538 1.3404463e-20)
(0.81622837 0.089674588 -1.8137587e-21)
(0.88325469 0.12332522 0)
(0.66836093 0.0065921106 9.8149685e-21)
(0.78815356 0.027029978 0)
(0.53255428 -0.0044775066 0)
(0.35625128 -0.0089678213 5.8391546e-21)
(0.14376746 -0.005813315 -9.4962322e-21)
(0.85962048 0.076245153 0)
(0.86924906 0.094197801 0)
(0.93266759 0.12982508 0)
(0.74714211 0.0055323887 -1.1914963e-20)
(0.62544824 -0.0052851108 -1.9519135e-20)
(0.87682827 0.025370587 0)
(0.48017279 -0.010435098 0)
(0.2897651 -0.0098739151 -5.9445637e-21)
(0.077808469 -0.0024861887 4.3122617e-21)
(0.90322241 0.071668037 -9.8810343e-22)
(0.92674872 0.11349916 0)
(1.0135393 0.16009068 0)
(0.78587308 -0.011946432 5.5835738e-22)
(0.66782559 -0.017924815 1.0297988e-20)
(0.91225954 0.0021311001 -9.6714681e-22)
(0.9121829 0.055737822 8.6828858e-21)
(0.53282021 -0.018657167 -5.9580683e-21)
(0.35937362 -0.015489422 3.4977321e-21)
(0.15356942 -0.0070559353 -3.9579198e-23)
(0.9729526 0.089055768 -1.1072812e-20)
(0.97876836 0.11169444 9.3372308e-22)
(1.0682757 0.15904178 0)
(0.87323554 -0.022796163 -1.3385001e-20)
(0.750291 -0.02606598 2.1747105e-20)
(0.62990487 -0.024845362 7.4706576e-21)
(1.0246091 -0.01003631 2.8948023e-20)
(1.0115009 0.051667493 -1.621466e-22)
(0.48433807 -0.021115385 6.0397328e-21)
(0.29795217 -0.013763978 -3.4985947e-21)
(0.087892819 -0.0032064604 0)
(1.033041 0.079297699 0)
(1.0597745 0.135542 0)
(1.1605788 0.19116846 0)
(0.92001709 -0.047454239 2.6591944e-20)
(0.79554799 -0.044451013 -1.2218277e-20)
(0.67745379 -0.038007935 -7.5389326e-21)
(1.057492 0.023642615 -7.1556183e-21)
(1.0704609 -0.045176315 -1.467054e-20)
(0.54130618 -0.029699805 0)
(0.36907657 -0.019903329 6.6037989e-23)
(0.16668373 -0.0074002369 -2.2847397e-21)
(1.1158082 0.094652322 1.8886837e-20)
(1.1284797 0.12701223 -1.8219499e-21)
(1.2211525 0.18079166 0)
(1.0159642 -0.06330287 -1.524115e-20)
(0.88367291 -0.060566459 -1.1667534e-20)
(0.76476455 -0.051540159 -7.3932303e-21)
(0.643278 -0.040071549 3.7441765e-21)
(1.1775926 0.034993097 2.0736771e-20)
(1.1635102 -0.059839494 0)
(0.49545148 -0.028787987 5.4981724e-22)
(0.31137813 -0.016034332 -6.6494859e-23)
(0.098878335 -0.0035353987 6.6974686e-21)
(1.1917593 0.075001698 -1.3550062e-20)
(1.211787 0.15160453 0)
(1.307684 0.21250238 0)
(1.0713003 -0.09295143 2.9902352e-20)
(0.9370717 -0.083985623 -1.083815e-20)
(0.8154845 -0.068840491 1.2651355e-20)
(0.69535599 -0.052226469 -2.2912609e-21)
(1.2481553 -0.0038505031 -2.7422567e-20)
(1.2385221 -0.04867702 -2.0294249e-20)
(1.2034755 -0.094770744 -2.2508384e-20)
(0.55618412 -0.03689995 -5.5134117e-22)
(0.38388727 -0.022077957 0)
(0.18143981 -0.006976144 -4.3826503e-21)
(1.2798184 0.09977986 0)
(1.2812946 0.13930158 0)
(1.3674361 0.19438928 0)
(1.0336552 -0.10486383 -1.2385157e-20)
(1.1709002 -0.11361498 3.4340851e-20)
(0.90704719 -0.089181238 9.4432011e-21)
(0.7886708 -0.069316918 -5.211213e-21)
(0.66323802 -0.050098196 -1.4830601e-21)
(1.3579211 0.00070225031 1.5218224e-20)
(1.324292 -0.079315181 2.3981752e-20)
(1.3022213 -0.11044128 0)
(0.51195213 -0.033239426 0)
(0.3284723 -0.016609077 6.7575055e-21)
(0.10961559 -0.0034866531 0)
(1.3596403 0.081299277 0)
(1.362297 0.16388534 -1.0889092e-20)
(1.4425951 0.22384499 0)
(1.093527 -0.12992661 0)
(1.2238065 -0.14268701 -1.6826716e-20)
(0.96520467 -0.1090409 0)
(0.8434788 -0.084082058 -1.1715038e-22)
(0.71905071 -0.060454838 6.2346373e-23)
(1.3768802 0.045122973 0)
(1.4254013 -0.043308293 -1.6858732e-20)
(1.4069979 -0.085052364 0)
(1.3538529 -0.14454889 -1.5524061e-20)
(0.57552217 -0.040309702 -6.6220094e-21)
(0.40197958 -0.022108583 -6.8053598e-21)
(0.19627375 -0.005943157 3.9840122e-23)
(1.4264565 0.10823366 8.8107303e-21)
(1.4300324 0.14353331 1.1502612e-20)
(1.4958001 0.19652562 -1.9868619e-22)
(1.0632008 -0.13370731 0)
(1.1931886 -0.1542765 0)
(1.3244404 -0.16506896 1.6291225e-20)
(0.93974345 -0.1070472 1.0724952e-21)
(0.81858297 -0.079540981 -3.126599e-21)
(0.68742013 -0.055101835 0)
(1.4749947 0.047047047 2.0123267e-20)
(1.5071743 -0.037228251 0)
(1.476713 -0.1284288 0)
(1.4541097 -0.16198044 1.1049247e-20)
(0.53198074 -0.034548201 6.6428601e-21)
(0.34734252 -0.015649115 -3.9613198e-23)
(0.11906148 -0.0030912203 0)
(1.4879341 0.087637918 -8.9034345e-21)
(1.4910098 0.16573553 2.0657307e-22)
(1.5392554 0.22259231 0)
(1.127503 -0.15423652 -2.2931734e-21)
(1.2555172 -0.18010793 5.4765635e-22)
(1.3830634 -0.19661564 -8.7880297e-21)
(1.0010367 -0.12299638 -9.5671379e-22)
(0.87648784 -0.091352877 9.018791e-21)
(0.74624195 -0.063370193 0)
(1.5226163 0.0091377599 -9.1042448e-21)
(1.5612022 -0.077608006 0)
(1.5484815 -0.12565697 0)
(1.5037568 -0.20053693 -1.1546829e-20)
(0.59752879 -0.040251561 1.6424994e-22)
(0.42148603 -0.020250818 -1.3804586e-20)
(0.20978176 -0.0044496812 1.552984e-20)
(1.5354272 0.10131662 1.0606294e-20)
(1.5404677 0.14055186 0)
(1.5708239 0.18976975 -2.4117121e-22)
(1.1019935 -0.14983034 2.2828248e-21)
(1.2276001 -0.1814729 0)
(1.3526803 -0.20552361 1.7257521e-20)
(1.4668445 -0.21776783 -1.4292044e-21)
(0.97783199 -0.11561609 0)
(0.85160544 -0.083260634 2.9368621e-21)
(0.71382519 -0.05559013 -1.638192e-22)
(1.5697892 0.0218846 -6.3172706e-21)
(1.596222 -0.06785907 0)
(1.5988008 -0.16605936 -8.0548007e-21)
(1.5671927 -0.21545412 5.046651e-21)
(0.55368472 -0.032955429 0)
(0.36606373 -0.01336604 2.9796004e-20)
(0.12634608 -0.0024194725 -1.5467045e-20)
(1.5753194 0.068570881 -2.3564527e-21)
(1.5699864 0.15719753 2.433235e-22)
(1.5881263 0.21743678 0)
(1.1692424 -0.16619906 0)
(1.2951589 -0.20240006 1.4544565e-22)
(1.4157454 -0.23108145 -7.8556445e-21)
(1.5190153 -0.24730912 0)
(1.0415494 -0.12803989 1.9693439e-22)
(0.91207824 -0.092152959 -8.7328291e-21)
(0.77494906 -0.06164344 0)
(1.6009149 -0.01654933 -2.7448798e-21)
(1.6144316 -0.10632394 -2.5377059e-21)
(1.5924255 -0.20503617 2.5262237e-21)
(1.612 -0.15411131 1.2727265e-20)
(1.5904544 -0.24973484 -6.1383909e-21)
(0.62042795 -0.037060912 0)
(0.44058082 -0.016778472 -1.6036048e-20)
(0.22078644 -0.0026153744 0)
(1.594818 0.083726412 -6.7731544e-21)
(1.5948845 0.1267221 0)
(1.5994587 0.18150678 9.447443e-22)
(1.1467009 -0.15637281 -1.9727364e-22)
(1.2712978 -0.19615662 -3.0326171e-22)
(1.3914646 -0.23063294 1.6873797e-21)
(1.4940846 -0.2543073 3.9074657e-22)
(1.5788709 -0.26090528 0)
(1.0187692 -0.1168474 -1.1475999e-20)
(0.88579882 -0.081335642 0)
(0.74069299 -0.05197415 0)
(1.6090288 -0.0015649603 2.63229e-21)
(1.6134443 -0.090050873 0)
(1.6150322 -0.22328837 -2.4698649e-21)
(1.616389 -0.18477751 -2.8352004e-21)
(1.6106333 -0.25427069 -6.1675185e-21)
(0.57522351 -0.028727681 1.8602819e-20)
(0.38284945 -0.010011076 0)
(0.13083656 -0.0015419961 0)
(1.6077929 0.048114187 -1.0275095e-21)
(1.6012663 0.14699231 -3.0130635e-22)
(1.5931963 0.21010106 -9.1054958e-22)
(1.2163962 -0.16954847 0)
(1.3418798 -0.21330488 5.9755627e-21)
(1.4549558 -0.2502315 -1.7747018e-22)
(1.5443055 -0.27481515 -1.1829437e-22)
(1.6046487 -0.28198689 4.9113093e-21)
(1.0849246 -0.12602874 1.1297923e-20)
(0.9483987 -0.087318851 0)
(0.80338971 -0.055645498 -1.4291299e-22)
(1.6129851 -0.038974131 5.918603e-22)
(1.6080286 -0.12250828 8.4094519e-22)
(1.6140829 -0.22216054 2.4065781e-22)
(1.6057631 -0.16856488 -9.6854928e-22)
(1.6176229 -0.27115059 9.2479555e-22)
(0.6424347 -0.031012197 -3.9045142e-20)
(0.45751883 -0.011976021 2.1439737e-20)
(0.22832962 -0.00050206192 0)
(1.6054054 0.069828554 -2.4317759e-21)
(1.6043591 0.11408816 5.4846134e-23)
(1.5887651 0.17415764 0)
(1.1950005 -0.15561627 0)
(1.3210057 -0.2011687 -5.9475559e-21)
(1.4354034 -0.24254001 -1.3537286e-21)
(1.5256475 -0.27255494 2.3021185e-23)
(1.5945009 -0.28624314 -1.2641868e-21)
(1.6143578 -0.28516177 8.0674143e-21)
(1.0611862 -0.11166868 1.7004251e-20)
(0.91957836 -0.074215884 -1.9428791e-20)
(0.76630164 -0.044493374 0)
(1.6009903 -0.021821417 -5.8697507e-22)
(1.5815598 -0.10234967 -7.536612e-21)
(1.6127534 -0.24484321 1.4656765e-21)
(1.5902897 -0.18360489 8.9526826e-22)
(1.6110533 -0.27085431 0)
(0.59473183 -0.0221407 2.0513063e-20)
(0.39613967 -0.0058385145 -4.4279689e-20)
(0.13218229 -0.00048973372 0)
(1.5996245 0.033253794 3.4771428e-21)
(1.5898546 0.1383278 0)
(1.5598775 0.20213343 0)
(1.266247 -0.16451391 0)
(1.3908579 -0.21190915 -1.1649709e-20)
(1.494151 -0.25277265 6.6075123e-21)
(1.5694818 -0.28187339 -1.8971701e-21)
(1.6129787 -0.29367608 -3.283772e-21)
(1.6175612 -0.29317574 2.3928535e-21)
(1.129147 -0.11747438 -1.6976889e-20)
(0.98388 -0.077109019 1.9470768e-20)
(0.82982887 -0.045571738 0)
(1.5828291 -0.053871292 3.7953108e-21)
(1.5511458 -0.12457315 8.1459982e-21)
(1.5853008 -0.2388794 3.8410372e-21)
(1.5517532 -0.16216074 -1.0741984e-20)
(1.5738152 -0.21694145 -8.1636374e-21)
(1.6032773 -0.2804967 3.9631701e-23)
(0.66174929 -0.022382307 0)
(0.47072339 -0.0060932398 2.2817277e-20)
(0.23175397 0.0016293263 0)
(1.5642886 0.049594768 0)
(1.5714425 0.1217495 -1.9715821e-21)
(1.5319781 0.17506775 -2.0713122e-21)
(1.2425509 -0.14515713 0)
(1.3689057 -0.19247154 1.1618986e-20)
(1.4750512 -0.23603021 2.2556641e-21)
(1.5537924 -0.26976458 1.8770466e-21)
(1.6067442 -0.29118989 0)
(1.6152018 -0.2953496 -8.9129622e-21)
(1.6050717 -0.29127383 0)
(1.1023104 -0.10013706 8.1143674e-23)
(0.95142157 -0.062041501 2.3856733e-20)
(0.78889207 -0.033424857 2.4652347e-20)
(1.5378823 -0.033806171 6.1349901e-21)
(1.4995368 -0.1055848 5.8656604e-21)
(1.5585836 -0.25816875 4.253694e-21)
(1.5125479 -0.17678238 1.6311525e-20)
(1.5229022 -0.20848671 -5.1378088e-21)
(1.5690749 -0.27525417 -2.4089615e-21)
(0.61038422 -0.013504022 -5.8014005e-24)
(0.40464634 -0.00099109619 0)
(0.13019113 0.00067694539 2.4413152e-20)
(1.5560583 0.084546225 0)
(1.5305533 0.0089277433 0)
(1.5337154 0.14842405 2.3753215e-21)
(1.4682062 0.18657198 2.0262548e-21)
(1.3098996 -0.14447677 0)
(1.4291196 -0.18848491 -1.6761489e-20)
(1.5226045 -0.22832355 -8.7980337e-21)
(1.587557 -0.26115658 -5.3613004e-21)
(1.6178386 -0.28417077 -3.542468e-22)
(1.6160743 -0.29430133 5.362774e-21)
(1.5956657 -0.29205962 -3.4045769e-21)
(1.1696785 -0.10054289 -8.8605476e-23)
(1.0160638 -0.061473709 -2.384143e-20)
(0.8525638 -0.031717755 -2.4643886e-20)
(1.4939516 -0.062660447 -1.5619978e-20)
(1.4494933 -0.12518275 0)
(1.5048636 -0.24734806 -9.7078911e-23)
(1.4590044 -0.16231718 -1.2588142e-20)
(1.4933713 -0.22203002 0)
(1.5426796 -0.27923495 2.2532417e-21)
(0.67666417 -0.01148774 6.3253793e-24)
(0.47868451 0.0006207816 2.5001799e-20)
(0.23053404 0.0035408051 -4.9024296e-20)
(1.5049116 0.096710085 2.3872163e-21)
(1.4765001 0.031013856 -1.2213972e-20)
(1.4941654 0.12880607 -2.4867589e-21)
(1.4296824 0.16072719 0)
(1.2786211 -0.11866052 8.8370189e-23)
(1.4007995 -0.1596552 1.663535e-20)
(1.4992011 -0.19945409 1.0930961e-22)
(1.5711851 -0.23568403 -1.5067759e-21)
(1.6141269 -0.26722681 3.2869363e-22)
(1.6158034 -0.28693193 -2.4536432e-21)
(1.5986906 -0.29207386 3.3918495e-21)
(1.5538784 -0.28693525 -1.8539297e-21)
(1.1362402 -0.079137884 0)
(0.97800971 -0.044938931 -2.7035827e-20)
(0.80678728 -0.019210321 -6.2985609e-24)
(1.4306305 -0.038784818 -6.3061512e-21)
(1.3815617 -0.10414556 -1.4113839e-20)
(1.4670402 -0.25367639 0)
(1.410087 -0.17749315 1.523359e-20)
(1.4259877 -0.20759714 0)
(1.4823633 -0.26905661 8.5268191e-22)
(0.62056123 -0.0032229321 0)
(0.40744189 0.0041664966 7.399124e-23)
(0.1244723 0.0017181116 2.4801828e-22)
(1.4708824 0.071927556 0)
(1.4255584 0.0053712949 1.1252873e-20)
(1.4407998 0.13997933 0)
(1.3307834 0.15496566 0)
(1.3317547 -0.101894 -4.527533e-23)
(1.4443495 -0.1356666 2.0837256e-20)
(1.5324074 -0.17101682 0)
(1.5934646 -0.20637769 1.5340744e-20)
(1.6208156 -0.23960945 0)
(1.6149213 -0.26762336 0)
(1.5869154 -0.28198029 0)
(1.5262547 -0.27986689 5.8374792e-21)
(1.1963112 -0.069214585 0)
(1.0400703 -0.039164517 2.703035e-20)
(0.86933408 -0.014583557 6.7807214e-24)
(1.3718746 -0.061840271 6.3246818e-21)
(1.322899 -0.12182839 0)
(1.3939671 -0.23914106 9.7527326e-21)
(1.3374663 -0.15813909 -3.0080286e-21)
(1.3753485 -0.21688337 -6.1993116e-21)
(1.4407118 -0.26535767 -9.2252782e-22)
(0.68572902 0.001081043 2.6065918e-20)
(0.48058153 0.0077148973 -2.5073086e-20)
(0.22450027 0.0054749788 6.3435947e-22)
(1.4075292 0.091268307 0)
(1.3584131 0.033649348 -1.9589739e-20)
(1.3948079 0.11782442 0)
(1.288374 0.13145029 2.7852296e-21)
(1.2904377 -0.071027978 0)
(1.4077566 -0.099685488 -4.317546e-20)
(1.5038261 -0.13280478 0)
(1.5748503 -0.16976248 1.224666e-21)
(1.6153003 -0.20713898 0)
(1.6172261 -0.24056759 -3.291406e-21)
(1.5922846 -0.26658482 0)
(1.5379175 -0.27509192 -1.3901136e-20)
(1.459021 -0.26901021 -6.4570377e-21)
(1.1526404 -0.044997148 0)
(0.9941282 -0.021273814 2.8650123e-20)
(0.81730718 -0.0026318467 -2.7551649e-20)
(1.2934555 -0.028069812 5.6457685e-21)
(1.2488548 -0.096767081 0)
(1.3401706 -0.23851417 -4.1860094e-21)
(1.2771297 -0.16836849 -1.5363355e-21)
(1.2953913 -0.19726503 8.2812938e-21)
(1.361571 -0.25060133 7.8654812e-22)
(0.62419398 0.0078296751 -2.6060093e-20)
(0.40383318 0.0092651179 2.4080969e-20)
(0.11551868 0.0026678733 2.3609009e-20)
(1.3516404 0.06774885 0)
(1.2870545 0.011467788 2.1021031e-20)
(1.310705 0.11864759 7.8855176e-21)
(1.1689773 0.11571949 -2.7051817e-21)
(1.3260013 -0.038043907 -2.7246212e-20)
(1.4366013 -0.06044425 4.6224099e-20)
(1.527149 -0.090881856 1.8177066e-20)
(1.5912605 -0.12824247 -2.0763405e-20)
(1.6206397 -0.16800349 0)
(1.6141157 -0.20627527 3.1870396e-21)
(1.5781648 -0.23832685 8.2930187e-21)
(1.508439 -0.25462823 2.8481813e-20)
(1.4147764 -0.25371889 -2.8589949e-21)
(1.1969348 -0.021883263 0)
(1.0472941 -0.0074956022 -2.8668553e-20)
(0.87630561 0.005555713 2.7553279e-20)
(1.2295359 -0.049557943 0)
(1.1819508 -0.10892759 0)
(1.254555 -0.21929958 0)
(1.1975803 -0.14435454 1.3126953e-20)
(1.2331532 -0.1996059 -7.6800077e-21)
(1.3055589 -0.23890416 -5.8820084e-21)
(0.68773004 0.014140815 2.504901e-20)
(0.47587577 0.014535318 -4.7119076e-20)
(0.21382967 0.0071434057 -2.1349978e-20)
(1.2699669 0.080641953 0)
(1.198876 0.033394032 1.8878097e-20)
(1.249985 0.097816806 -7.6743897e-21)
(1.1242606 0.096033457 1.7150134e-22)
(1.2759228 -0.0066220767 2.7225273e-20)
(1.3934772 -0.022329592 -2.3750683e-20)
(1.4945195 -0.048673498 1.0891471e-21)
(1.5713495 -0.085009695 1.1046929e-20)
(1.6144287 -0.12726433 0)
(1.6182526 -0.16848213 0)
(1.5900174 -0.20629755 1.398694e-21)
(1.5250547 -0.23523128 -2.0333335e-20)
(1.4358642 -0.24563368 -3.0085548e-21)
(1.3304592 -0.23963721 5.8652039e-21)
(1.1437406 0.0020744729 0)
(0.99224688 0.0094314762 -8.5013423e-25)
(0.81725975 0.016237329 1.9852489e-25)
(1.1427733 -0.026066626 -3.9132152e-20)
(1.1078284 -0.080397179 0)
(1.1904131 -0.21170079 0)
(1.1318858 -0.14906583 -1.1733289e-20)
(1.1481535 -0.17579071 -4.780238e-22)
(1.2154258 -0.2209884 4.7212495e-21)
(0.62059763 0.018770587 -2.5047866e-20)
(0.39387498 0.013918993 2.3042301e-20)
(0.10397842 0.0034859763 2.1300176e-20)
(1.188186 0.059392995 -1.0139634e-20)
(1.1247626 0.024499657 -3.0002265e-20)
(1.1551288 0.088993935 -1.7079086e-22)
(1.0030901 0.07981371 -2.7519583e-21)
(1.2975956 0.035316346 0)
(1.4132523 0.023948402 1.1223505e-23)
(1.5127288 -7.2301208e-05 -3.951729e-20)
(1.5854026 -0.03630349 1.2969709e-20)
(1.6197821 -0.08112833 4.6451858e-21)
(1.6147373 -0.12763319 -5.6841894e-23)
(1.5755306 -0.17008515 -9.3526605e-21)
(1.4959144 -0.20255259 2.3487574e-22)
(1.3916253 -0.21888548 1.2246068e-20)
(1.2738888 -0.21797841 -1.2734456e-20)
(1.1716386 0.036432185 0)
(1.0310279 0.032325284 2.7141897e-20)
(0.86817801 0.029374073 0)
(1.1276401 0.0047026114 3.251802e-20)
(1.089721 -0.049553586 1.5183003e-20)
(1.0443755 -0.090426597 -1.1929162e-20)
(1.1008511 -0.18932032 0)
(1.0578435 -0.12043434 1.2110031e-20)
(1.0816301 -0.17163796 0)
(1.1508011 -0.20352181 -1.3073786e-20)
(0.68063831 0.02709156 2.243407e-20)
(0.46465223 0.0204748 0)
(0.19899642 0.0082746696 0)
(1.1081333 0.05965124 1.3610489e-20)
(1.0159156 0.02473787 7.253674e-21)
(1.0935059 0.071779112 0)
(0.95933105 0.065383315 1.3565568e-21)
(1.241433 0.062751695 0)
(1.3646972 0.058977587 0)
(1.4749343 0.041708458 2.0154042e-20)
(1.5616255 0.01078969 -1.2968319e-20)
(1.6124234 -0.032705229 5.5097936e-22)
(1.6194651 -0.081099258 0)
(1.5922023 -0.12818004 5.6786257e-23)
(1.5202147 -0.17049739 -1.9952512e-22)
(1.4181898 -0.19868533 -2.347668e-22)
(1.3026318 -0.2080927 1.2704132e-20)
(1.1799824 -0.20235081 8.3555596e-21)
(1.1112212 0.055846134 2.7067025e-20)
(0.96912132 0.04509503 -2.7147761e-20)
(0.80338102 0.036629644 0)
(1.0054865 0.0013231561 3.4460644e-20)
(1.0012126 -0.031377954 1.4401242e-20)
(0.96970901 -0.063430301 0)
(1.0342281 -0.17624246 0)
(0.9924624 -0.1198599 2.8634698e-22)
(1.0043419 -0.14422141 4.9612077e-21)
(1.0575588 -0.18374028 0)
(0.60870767 0.02891231 -2.2438373e-20)
(0.37819604 0.017558201 -1.7879674e-20)
(0.091078755 0.0040764136 0)
(1.0037545 0.047163025 -1.2462236e-20)
(0.94897323 0.010017914 -1.9424207e-20)
(0.98383066 0.036629957 9.9154516e-21)
(0.99385224 0.063225591 0)
(0.82522729 0.050602624 1.2392806e-21)
(1.2552997 0.10721419 0)
(1.3798266 0.10686295 0)
(1.4904061 0.092059526 0)
(1.5739086 0.062207628 0)
(1.6176814 0.018870421 -5.1992339e-21)
(1.6168817 -0.033010677 0)
(1.5786172 -0.086116752 1.1590101e-20)
(1.4917952 -0.13205627 0)
(1.3755065 -0.16318182 0)
(1.2476011 -0.17774375 0)
(1.1165624 -0.1768664 1.5434447e-20)
(1.1265129 0.094190507 -2.7066595e-20)
(0.99340415 0.073780465 0)
(0.84289497 0.054073608 -2.118691e-20)
(0.96487442 -0.010158678 -2.9800534e-20)
(0.94247371 -0.039841514 0)
(0.90557336 -0.066839502 1.0357544e-20)
(0.95323453 -0.15158192 0)
(0.9245088 -0.09031061 -1.0346529e-20)
(0.93952144 -0.13537502 -4.989353e-21)
(0.99251082 -0.1628335 0)
(0.66309289 0.039011845 1.8345953e-20)
(0.44732262 0.024851132 1.7879887e-20)
(0.18104978 0.0085889252 1.1101184e-25)
(0.9396496 0.047495961 -2.3210175e-21)
(0.84215634 0.0086415825 -2.5345063e-20)
(0.84107376 0.024454919 0)
(0.78530276 0.041710738 -5.5960062e-21)
(1.1945637 0.12598735 0)
(1.3258721 0.13436862 -2.3316264e-20)
(1.446748 0.12825667 0)
(1.5452986 0.10652918 0)
(1.6073181 0.069322694 -6.2569376e-21)
(1.6209717 0.020113649 -5.8028302e-21)
(1.5982103 -0.03442901 -2.3096101e-20)
(1.5223747 -0.088795998 -1.1631277e-22)
(1.4089591 -0.13192958 0)
(1.2815401 -0.15735927 0)
(1.1499956 -0.16599445 -1.5417912e-20)
(1.0200096 -0.16056896 0)
(1.0620007 0.10533127 0)
(0.92784702 0.079302851 -2.1229141e-20)
(0.77499502 0.055763738 3.9795982e-20)
(0.84297354 -0.0068333616 1.4224579e-20)
(0.83596753 -0.027500767 1.3231191e-20)
(0.8138591 -0.046559758 -2.1060361e-20)
(0.89039827 -0.13545295 7.4753198e-23)
(0.85971136 -0.086429589 2.1165448e-22)
(0.87364729 -0.10660423 0)
(0.9080795 -0.14206604 8.2040941e-21)
(0.58818848 0.037273114 -1.8355066e-20)
(0.35777116 0.019599578 -1.1028995e-25)
(0.078031883 0.0043314863 -1.0771087e-20)
(0.83343066 0.038272338 -4.2844281e-22)
(0.78506262 -0.00060414183 -2.9241932e-22)
(0.78799045 0.014938669 1.2443742e-20)
(0.78766256 0.027484525 9.3423169e-21)
(0.65666131 0.029158325 1.2014019e-21)
(1.2057473 0.16646244 0)
(1.3405157 0.17797608 2.3315862e-20)
(1.4619626 0.17478374 0)
(1.5574906 0.15566882 1.4008791e-20)
(1.6127635 0.11998871 1.2791524e-20)
(1.6190343 0.070931334 1.0663026e-21)
(1.5854732 0.013177926 2.3030775e-22)
(1.4944846 -0.043772961 8.4425031e-23)
(1.3673409 -0.089694643 0)
(1.2290345 -0.11981601 0)
(1.0894207 -0.13384177 -3.0126108e-22)
(0.9581794 -0.13372727 0)
(1.0708349 0.14179919 2.072234e-20)
(0.9413678 0.10863765 2.1229786e-20)
(0.80323117 0.075024125 -1.8596749e-20)
(0.78482805 -0.016445458 -1.3329596e-20)
(0.77141098 -0.032725552 1.1159038e-20)
(0.74642277 -0.04701734 9.6331024e-21)
(0.82365535 -0.10990078 -3.4459998e-22)
(0.78029703 -0.061704053 -2.1256364e-22)
(0.81091389 -0.095828458 2.6930544e-22)
(0.84883491 -0.12027757 -8.2272014e-21)
(0.63577754 0.048280203 2.2020227e-25)
(0.42489756 0.027024337 0)
(0.16183294 0.0080749095 1.0799671e-20)
(0.65983496 -0.0031930591 -1.2288503e-20)
(0.66040302 0.0088413675 9.8592676e-21)
(0.65899261 0.018822767 5.9248791e-21)
(0.63099644 0.021489661 0)
(0.60405735 0.021174286 1.2533747e-21)
(1.1416535 0.17439791 -6.555372e-25)
(1.2821368 0.19452219 0)
(1.4134794 0.20060047 0)
(1.523477 0.19148112 -5.2458047e-22)
(1.5980823 0.16573759 -1.3254844e-20)
(1.6217496 0.12304121 6.3636449e-21)
(1.6060327 0.069405326 1.1399953e-20)
(1.5303862 0.0091664052 -1.8980733e-20)
(1.4081197 -0.047613593 -8.4540662e-23)
(1.269424 -0.089147575 -2.5458547e-20)
(1.1279825 -0.11352913 -2.3626203e-20)
(0.99050272 -0.12261993 3.0165841e-22)
(0.87089684 -0.11799612 0)
(1.0049344 0.14290956 -2.0742305e-20)
(0.87498399 0.10535725 0)
(0.73540146 0.070136625 1.2634192e-20)
(0.65685211 -0.01396923 0)
(0.64787358 -0.024731 1.0745103e-21)
(0.63113398 -0.033782237 0)
(0.76491885 -0.093543085 0)
(0.71333447 -0.056858049 -3.0304877e-21)
(0.74040687 -0.070248905 3.0348832e-21)
(0.7800364 -0.099820082 0)
(0.56039036 0.042535022 0)
(0.33422839 0.019753365 7.7051212e-21)
(0.065865584 0.0042292474 0)
(0.59820953 0.0012796572 -6.8270268e-22)
(0.59513648 -0.0081938313 1.1961765e-20)
(0.59875347 0.011576364 -1.7762187e-20)
(0.43350276 0.019453299 -3.1472131e-21)
(0.45617983 0.011753141 -1.2246965e-21)
(1.1543318 0.20653749 1.5590559e-20)
(1.2986665 0.2293119 1.623691e-20)
(1.4297326 0.23867599 -1.0792509e-25)
(1.5357661 0.23344364 -1.2170729e-21)
(1.6039191 0.21149813 1.32205e-20)
(1.6193158 0.1709838 -2.7427946e-21)
(1.5938371 0.11760505 0)
(1.5029807 0.056858083 3.7331702e-20)
(1.3680512 -0.00042335606 2.4170674e-20)
(1.2201271 -0.046178738 2.5607522e-20)
(1.0718606 -0.076399595 4.8920334e-20)
(0.93335194 -0.091564992 1.515789e-22)
(0.81678242 -0.092672808 1.1156142e-22)
(1.0125338 0.17222564 -4.5434418e-25)
(0.88306677 0.13044333 0)
(0.7552736 0.087986838 -1.263437e-20)
(0.58857311 -0.017523971 -1.1241343e-20)
(0.57579328 -0.025570501 1.0201436e-20)
(0.55689839 -0.031533012 0)
(0.69968002 -0.070385031 4.7164137e-21)
(0.60765221 -0.039911527 0)
(0.67645037 -0.060476981 -8.3074154e-24)
(0.7266967 -0.080082372 1.1734029e-20)
(0.60161762 0.052950784 0)
(0.39934309 0.026488051 -7.7050994e-21)
(0.1433649 0.0066237502 -3.1752641e-21)
(0.45791066 -0.0012158796 6.7382497e-22)
(0.45410941 -0.0076931246 -1.0800904e-20)
(0.45865969 0.0050851507 8.4945242e-21)
(0.38787428 0.014645893 1.8532456e-21)
(0.3867665 0.0055015114 0)
(1.0880756 0.20318766 -1.5605041e-20)
(1.2369624 0.23376216 -1.6246275e-20)
(1.3778497 0.25183832 -2.4476996e-25)
(1.4971896 0.25607199 -1.2255309e-20)
(1.5838961 0.24598751 -1.279245e-20)
(1.6201402 0.21599976 1.4677639e-21)
(1.6133943 0.17051791 -9.0482438e-21)
(1.542709 0.11214546 1.594889e-20)
(1.4165707 0.048917352 -2.4127618e-20)
(1.2682708 -0.0065264113 2.6542377e-20)
(1.1168914 -0.04718064 -2.5432732e-20)
(0.97157967 -0.072130399 9.304872e-23)
(0.84425494 -0.082545961 -1.518191e-22)
(0.74604707 -0.078483174 -1.1847306e-20)
(0.94662165 0.16334701 0)
(0.81877644 0.11885956 -8.017664e-21)
(0.69019345 0.076852917 0)
(0.4466131 -0.013407058 -1.0955952e-20)
(0.43455719 -0.018146366 -1.7510335e-20)
(0.41808421 -0.021288787 -4.9203485e-21)
(0.64046785 -0.056796163 2.6322972e-21)
(0.53350965 -0.034534699 1.54117e-23)
(0.57994173 -0.042016297 -1.4093596e-21)
(0.66319985 -0.061530471 -7.3219938e-21)
(0.52835385 0.043458781 0)
(0.30987379 0.017799049 0)
(0.055973053 0.0037416301 3.1679597e-21)
(0.38307834 -0.0042007403 -3.3463999e-22)
(0.38631445 0.00086991176 -8.6170052e-21)
(0.37635599 -0.0086375565 2.2222797e-20)
(0.21305463 0.01041487 4.2677115e-21)
(0.21988121 0.00041278856 5.4410978e-21)
(1.1048663 0.22389378 0)
(1.2568064 0.25694081 9.0676606e-21)
(1.396098 0.27862035 0)
(1.5106808 0.28708012 0)
(1.5899292 0.28180199 6.3056697e-21)
(1.6175188 0.25570036 -3.7193192e-22)
(1.6019719 0.21404234 9.0486941e-21)
(1.5168745 0.15695853 -3.4252822e-20)
(1.3793117 0.094123789 0)
(1.2239974 0.036846547 -5.8715349e-22)
(1.0672601 -0.0085896268 0)
(0.92084013 -0.039434708 0)
(0.79638587 -0.055685404 -2.030837e-20)
(0.69892039 -0.057392058 0)
(0.9572935 0.18251441 -2.0727189e-25)
(0.82631829 0.13623939 8.0176339e-21)
(0.70590609 0.090352313 0)
(0.36535196 -0.012469889 9.3671153e-21)
(0.35012363 -0.015175024 8.1098878e-21)
(0.33167744 -0.016397925 4.9368025e-21)
(0.55131028 -0.039278523 3.7440637e-21)
(0.39842722 -0.022341807 9.8997168e-22)
(0.50803533 -0.033881728 -2.3636066e-21)
(0.60977112 -0.045905769 -1.1636916e-20)
(0.56503694 0.0515834 -5.8009841e-26)
(0.37337454 0.022954492 -1.0348273e-22)
(0.12764824 0.0042658009 -1.2461273e-21)
(0.2135809 -0.0035217357 3.3429058e-22)
(0.21827813 -0.0017106561 8.0679764e-21)
(0.2057452 -0.0052255431 -1.0711767e-20)
(0.15489368 0.012092362 -5.5710883e-21)
(0.1325229 0.0015261921 -5.8463883e-21)
(0.12473837 -0.00025495826 -8.5393302e-21)
(1.0382838 0.20951378 -3.2802487e-21)
(1.1931785 0.24843331 -1.4079006e-20)
(1.3418721 0.27836934 0)
(1.4696152 0.2958556 0)
(1.5649023 0.30003936 0)
(1.6156564 0.28832387 4.2520501e-22)
(1.6169825 0.25630525 0)
(1.5597288 0.20699186 0)
(1.4348619 0.14351279 -9.3662432e-24)
(1.280531 0.080827308 -2.5872055e-20)
(1.1199484 0.027139349 -5.1912672e-23)
(0.9660046 -0.012960227 2.4353491e-20)
(0.83039158 -0.03851289 2.0306569e-20)
(0.72355298 -0.048928189 0)
(0.63494068 -0.044897638 2.4744329e-20)
(0.89303217 0.16495581 0)
(0.76576685 0.11804696 0)
(0.64542856 0.07435633 5.7862977e-26)
(0.19472932 -0.0065682125 1.8925308e-20)
(0.1806608 -0.0072494573 -7.8512452e-21)
(0.1646674 -0.0072507599 -3.1272131e-21)
(0.48342863 -0.029249842 8.0108176e-21)
(0.31170698 -0.01593681 -1.0072836e-21)
(0.37740864 -0.020999658 3.1307665e-21)
(0.52535153 -0.031560646 -7.9738737e-21)
(0.49609633 0.039376362 0)
(0.28741089 0.013777454 2.4462699e-21)
(0.049616777 0.0028022931 4.2829702e-21)
(0.11957271 -0.0010086121 0)
(0.11266552 -0.0017939085 1.0696407e-20)
(0.10377138 -0.0025121115 -9.8847504e-21)
(1.0608099 0.21738413 3.2804606e-21)
(1.2175261 0.25798719 5.6842142e-21)
(1.3629106 0.2913316 1.0156341e-25)
(1.4847568 0.313641 0)
(1.5717597 0.32285144 3.0148133e-21)
(1.6139171 0.31552656 -4.2368755e-22)
(1.608964 0.28919143 0)
(1.5376495 0.24151764 1.1394969e-20)
(1.4024226 0.17983187 4.9457904e-24)
(1.2423783 0.11751002 -2.2299302e-20)
(1.0780043 0.061919678 0)
(0.92309594 0.017727581 -2.4391559e-20)
(0.78977864 -0.012765471 1.9227401e-23)
(0.68331086 -0.028428619 0)
(0.58771103 -0.029289205 -1.3161421e-20)
(0.90950349 0.17253454 0)
(0.77726646 0.12602712 0)
(0.66138856 0.081415504 -1.0675414e-25)
(0.093195606 -0.0031463565 -1.1502988e-21)
(0.081988703 -0.0035265392 0)
(0.070974319 -0.003607738 3.1258034e-21)
(0.35720046 -0.017193117 -1.7764806e-21)
(0.14838789 -0.0065233569 -7.0347123e-22)
(0.29219188 -0.013708482 -8.2694037e-21)
(0.46274433 -0.020902215 1.117362e-20)
(0.5308655 0.043767294 0)
(0.35009662 0.0165582 -2.3426456e-21)
(0.11670348 0.0011090786 1.3500502e-21)
(0.99598671 0.19439189 0)
(1.1541004 0.2378071 -6.8207457e-22)
(1.3073768 0.27686693 0)
(1.4419812 0.30785571 7.060583e-22)
(1.5450522 0.32592474 -3.0153077e-21)
(1.6056532 0.3298738 -3.7765195e-22)
(1.6194318 0.31741184 -6.186125e-26)
(1.5802661 0.28174908 -2.4357932e-21)
(1.4619165 0.22426387 -1.4852219e-20)
(1.3059963 0.16079574 4.1751037e-20)
(1.1383529 0.10004753 0)
(0.97579532 0.048590323 0)
(0.83108392 0.0097281563 2.2242019e-23)
(0.71440319 -0.014315823 1.7923632e-20)
(0.61728789 -0.022973607 0)
(0.50529224 -0.019621064 -1.1173984e-20)
(0.84849079 0.14877973 0)
(0.72180898 0.10378973 1.0658657e-25)
(0.60660672 0.062768744 0)
(0.27523121 -0.009848853 6.918267e-21)
(0.061171107 -0.0033849501 3.3445267e-21)
(0.13347198 -0.0050247777 1.8288593e-21)
(0.34010174 -0.011196366 0)
(0.46775985 0.030423297 -6.2958664e-26)
(0.26955982 0.0080517834 -3.2923232e-26)
(0.047558561 0.0014069148 -4.3868482e-21)
(1.023939 0.19119013 2.6765137e-25)
(1.1832682 0.23474086 0)
(1.3320019 0.2754115 0)
(1.4595237 0.31034677 -3.4152994e-21)
(1.5543961 0.33409848 -7.4700408e-22)
(1.6064101 0.34204176 -2.0628894e-22)
(1.6137657 0.3353955 2.5778971e-21)
(1.5618604 0.30368687 -1.559536e-20)
(1.4347163 0.24912587 1.4850715e-20)
(1.2735347 0.1868511 -3.5826175e-20)