/*--------------------------------*- C++ -*----------------------------------*\
| =========                 |                                                 |
| \\      /  F ield         | OpenFOAM: The Open Source CFD Toolbox           |
|  \\    /   O peration     | Version:  2112                                  |
|   \\  /    A nd           | Website:  www.openfoam.com                      |
|    \\/     M anipulation  |                                                 |
\*---------------------------------------------------------------------------*/
FoamFile
{
    version     2.0;
    format      ascii;
    arch        "LSB;label=32;scalar=64";
    class       volVectorField;
    location    "0.335";
    object      ddt0(U);
}
// * * * * * * * * * * * * * * * * * * * * * * * * * * * * * * * * * * * * * //

dimensions      [0 1 -2 0 0 0 0];

internalField   nonuniform List<vector> 
16200
(
(-0.57108542 0.041560721 -2.4537013e-27)
(-0.66566264 -0.050241651 0)
(-1.0288306 -0.14999817 2.0781708e-20)
(-0.27526756 -0.04248225 0)
(-1.0411776 -0.32715873 -1.4061253e-20)
(-1.1625926 -0.047696808 -1.522501e-20)
(-0.44581667 -0.13680214 6.9762157e-20)
(-1.252684 -0.50618992 2.7736217e-21)
(-0.73890225 -0.28187921 0)
(-1.679703 -0.17191773 -6.9419209e-22)
(-0.065449951 -0.061413842 -7.6946928e-20)
(-1.5320976 -0.3270257 -5.0196507e-22)
(-1.1081723 -0.73519311 0)
(-0.68471892 -0.42970583 0)
(-0.15128034 -0.14243794 -3.3960776e-21)
(-1.7917481 -0.62866558 -1.9645065e-21)
(-1.1516001 -1.0478312 0)
(-0.77280362 -0.66162203 0)
(-0.35978888 -0.33593612 -8.6475103e-20)
(0.15457439 -0.078142162 0)
(-1.5313063 -1.03699 0)
(-2.2163431 -0.45163938 0)
(-0.88704367 -1.3490229 -4.3766306e-22)
(-0.57286353 -0.85591781 -9.4776116e-20)
(-0.27074105 -0.46208499 8.4108157e-20)
(0.17491442 -0.12184495 0)
(-1.4614624 -1.4448932 0)
(-2.0576981 -1.0916436 1.5949791e-21)
(-0.45601064 -1.2196624 0)
(-0.78106848 -1.8246174 3.6016427e-20)
(-0.27345243 -0.72536891 1.0242565e-19)
(0.044647923 -0.31819277 0)
(0.3501657 -0.067287606 -2.9152708e-19)
(-0.99798664 -1.8231814 -5.0120529e-20)
(-1.796868 -1.5006411 -2.1038378e-21)
(-2.4552791 -0.99897122 0)
(-0.10844642 -1.4354736 -2.1143088e-19)
(-0.27449608 -2.1672177 0)
(-0.025142024 -0.85882167 0)
(0.14357959 -0.41604715 -1.7138007e-19)
(0.45608286 -0.093742779 6.2055022e-19)
(-1.3178507 -2.2039218 0)
(-1.6714722 -1.900838 0)
(-2.1396491 -1.6336417 0)
(0.16078206 -1.866644 1.4072852e-19)
(0.20127844 -1.1920893 5.8769082e-19)
(-0.14634552 -2.7044286 0)
(0.22333953 -0.67122942 0)
(0.41546811 -0.26398335 1.7443785e-19)
(0.49718029 -0.050716155 -3.3292804e-19)
(-0.90145659 -2.5793261 7.027474e-22)
(-1.8705352 -2.0806605 0)
(-2.5065546 -1.6160252 0)
(0.58585938 -2.0028918 1.6333055e-19)
(0.55155203 -1.2757812 -4.0649823e-19)
(0.39741879 -2.8855921 3.7000228e-21)
(-0.47278761 -2.9432698 -2.5254635e-20)
(0.47558337 -0.73921712 3.3438465e-20)
(0.51818731 -0.31588194 -3.4269516e-19)
(0.66663128 -0.044620863 6.6477248e-21)
(-1.1305106 -2.9227141 3.4516029e-20)
(-1.4883969 -2.5759882 -3.0268181e-21)
(-2.0516442 -2.3381023 0)
(0.82272421 -2.4737957 -3.0187781e-19)
(0.89042987 -1.6504358 -8.7085363e-19)
(0.79314768 -1.0259139 -6.7760299e-19)
(0.55265434 -3.4630401 -2.3260636e-19)
(-0.37878204 -3.4687269 8.5722387e-22)
(0.63554042 -0.53398096 -3.3945994e-20)
(0.71997081 -0.18197925 3.4002366e-19)
(0.56863474 -0.02880735 0)
(-0.80362176 -3.4240062 0)
(-1.7514355 -2.8704509 0)
(-2.3375864 -2.2979269 0)
(1.2218917 -2.4899904 8.4313892e-19)
(1.2482903 -1.6839364 6.0834912e-19)
(1.086134 -1.0082312 6.8389059e-19)
(0.12191004 -3.8734071 2.2992534e-20)
(0.97922076 -3.4917266 1.123469e-19)
(0.87170644 -0.53314962 0)
(0.81771305 -0.19091027 5.7015081e-19)
(0.78562637 0.0042860753 -6.638241e-19)
(-0.94814652 -3.8055628 -1.7937247e-19)
(-1.3425945 -3.4271017 1.167474e-20)
(-1.7433867 -3.1094054 0)
(1.364974 -2.868724 -1.5426879e-18)
(1.5159742 -2.0312973 -5.5412346e-19)
(1.4640469 -1.2885261 6.1444163e-19)
(1.2113961 -0.74592572 -5.7577935e-19)
(-0.12079065 -4.48958 -5.6674904e-19)
(1.0479525 -3.8165918 0)
(0.95433839 -0.35353648 -5.8525619e-19)
(0.93578281 -0.081833256 -5.7409509e-19)
(0.57220219 -0.005366495 1.4165196e-18)
(-0.43623578 -4.3095187 1.3349448e-19)
(-1.4801858 -3.6808964 0)
(-1.8337611 -2.9529872 0)
(1.7372337 -2.7705665 3.1530121e-18)
(1.8635593 -1.9103849 -1.5851206e-19)
(1.758524 -1.1900032 -1.1839651e-18)
(1.4482637 -0.66178993 -5.9309726e-20)
(0.49035686 -4.7491486 6.6063775e-19)
(0.80772615 -4.3416946 9.7385491e-19)
(1.500562 -3.5746873 3.6698333e-18)
(1.139128 -0.3063132 5.8687678e-19)
(1.017082 -0.059745189 0)
(0.81008388 0.044692687 -7.4824077e-19)
(-0.57414262 -4.6220223 0)
(-0.97605224 -4.1802049 0)
(-1.0577053 -3.7724928 0)
(1.9679643 -2.1765364 -1.4560776e-18)
(1.7419307 -3.0341142 -6.0218501e-18)
(2.0490289 -1.4111251 8.7672224e-20)
(1.8575238 -0.83044526 5.6643006e-19)
(1.46815 -0.43742738 6.4235476e-19)
(0.27756584 -5.2646727 -4.9298241e-19)
(1.0373109 -4.4454137 -1.1518223e-18)
(1.4610925 -3.8418716 0)
(1.1578985 -0.16218301 0)
(1.0506586 0.016242941 8.3692286e-19)
(0.51283053 0.016152617 0)
(-0.12740469 -5.0131365 0)
(-0.8923074 -4.27195 8.8565668e-20)
(-1.0038514 -3.5360736 0)
(2.2372144 -1.9308688 0)
(2.0126545 -2.7531517 3.1402081e-18)
(2.2827019 -1.1876719 0)
(2.0588136 -0.66049755 4.0836079e-20)
(1.6553274 -0.31791244 2.3717282e-20)
(0.20772508 -5.4243718 0)
(0.63693062 -5.2158891 5.4612941e-19)
(0.88652146 -4.8201516 0)
(1.5860576 -3.6419256 1.5319125e-18)
(1.2915953 -0.087381899 -8.5379576e-19)
(1.1069674 0.061257969 -8.4374018e-19)
(0.75094579 0.076054136 3.7515416e-21)
(-0.21329809 -5.1100582 -1.4124793e-19)
(-0.38950118 -4.7293051 -9.3769895e-20)
(-0.40455683 -4.2857082 1.8039256e-21)
(2.4280504 -1.352255 0)
(2.2788051 -2.1401759 0)
(1.9658715 -2.9787747 -1.6384245e-18)
(2.375107 -0.76832099 -7.4574403e-19)
(2.0352314 -0.39583766 -8.2863225e-19)
(1.5876392 -0.14580031 0)
(0.078757969 -5.6077486 -5.2134202e-19)
(0.4189908 -5.5963369 0)
(1.0796768 -4.6079469 0)
(1.3529865 -3.9268852 -8.5411312e-19)
(1.2531201 0.02215226 8.5648339e-19)
(1.057956 0.10195107 -3.7296636e-21)
(0.40088177 0.035175521 0)
(0.020439893 -5.3910846 1.4322031e-19)
(-0.28457921 -4.7220867 -1.8754568e-21)
(-0.37372579 -4.0303495 0)
(2.5881639 -1.0454768 7.8934359e-19)
(2.4258692 -1.7847744 -6.9644676e-20)
(2.0476584 -2.6384188 1.0473183e-18)
(2.5071458 -0.53295551 7.0610213e-19)
(2.1864494 -0.2142368 1.6902762e-18)
(1.7326946 -0.013881416 0)
(0.39733253 -5.7149592 2.138675e-19)
(0.54892175 -5.3903136 0)
(0.69077808 -4.9366176 0)
(1.3947816 -3.4834237 8.9135563e-19)
(1.3420633 0.11213735 1.5223168e-20)
(1.0963755 0.16563891 -1.0611532e-18)
(0.6204625 0.098151677 1.1401941e-18)
(0.13492306 -5.4439976 -2.2339094e-19)
(0.070678033 -5.0674318 0)
(0.03599197 -4.6574108 4.2464318e-21)
(2.716032 -0.61725971 -7.8578051e-19)
(2.6732628 -1.2113916 0)
(2.381403 -1.9773623 -2.2039563e-18)
(1.7420453 -2.7891237 1.46469e-19)
(2.4928706 -0.24949473 0)
(2.0760671 -0.019816252 7.4313854e-20)
(1.6017158 0.11769785 -1.5181462e-20)
(0.32477026 -5.867327 1.8523558e-19)
(0.22813104 -5.6406062 0)
(0.47514504 -4.5826444 5.3354894e-19)
(1.0481702 -3.5069573 -4.1022827e-19)
(1.2489285 0.1891894 0)
(0.9650885 0.17357176 2.1838054e-18)
(0.24745364 0.047424729 -1.1355411e-18)
(0.37089546 -5.6481814 -6.0309773e-21)
(0.10507109 -5.0315045 -4.284343e-21)
(0.10687819 -4.3001397 0)
(2.8140629 -0.38023242 0)
(2.7705828 -0.91992997 -8.7426536e-19)
(2.3959841 -1.5712866 1.1240636e-18)
(1.6655084 -2.2666222 0)
(2.6072026 -0.039248822 2.9476687e-20)
(2.1970354 0.15955023 -9.4396873e-19)
(1.7066779 0.25702906 0)
(0.26105043 -5.7667013 1.4921077e-19)
(0.12508974 -5.2622537 1.8136634e-19)
(0.52044526 -3.9062009 -1.6366159e-19)
(0.045362303 -4.7793608 -9.8945852e-19)
(0.86929763 -2.7700099 5.0063119e-19)
(1.2959426 0.29234966 0)
(0.98874117 0.25211213 -1.1257731e-18)
(0.43472478 0.11404382 0)
(0.29197578 -5.6241982 1.9371987e-19)
(0.27300928 -5.3079762 0)
(0.25511447 -4.821678 -7.5623947e-20)
(2.866324 -0.1070936 -2.9525373e-20)
(2.9503654 -0.52075011 9.2624423e-19)
(2.6948923 -1.0454388 -9.4170869e-19)
(1.9174423 -1.6144732 -5.9532301e-20)
(1.0896442 -2.1851682 0)
(2.5263985 0.17756138 -1.0605392e-18)
(2.0239704 0.31258459 0)
(1.524839 0.35920808 0)
(0.1997804 -5.7570682 -1.430636e-19)
(0.041397052 -5.3735787 0)
(0.083913932 -3.4381033 2.586771e-19)
(-0.19925767 -4.226022 -1.4552689e-19)
(0.2146645 -2.7464921 6.034455e-19)
(1.1463213 0.33791193 1.1705841e-18)
(0.78158368 0.22640833 0)
(0.069708259 0.058227623 0)
(0.25088458 -5.6670045 1.6352623e-19)
(0.249525 -5.2250578 1.0394919e-19)
(0.45115433 -4.2839706 7.3560613e-20)
(2.967097 0.094376759 0)
(2.9958682 -0.25792744 9.3856734e-19)
(2.4886691 -0.6293651 1.7477795e-18)
(1.6375067 -1.0085092 2.0483236e-20)
(0.69463785 -1.3519048 -6.0487161e-19)
(2.6370948 0.37945892 1.0430853e-18)
(2.1223912 0.49358643 0)
(1.5870004 0.51042563 -9.1146837e-21)
(0.10076364 -5.5930395 1.1580289e-19)
(-0.35115665 -4.8674308 1.1203042e-19)
(-0.16129993 -3.5573805 4.3434002e-20)
(-0.43184119 -4.4004383 3.8926183e-19)
(-0.024223956 -2.0638719 -5.45594e-20)
(1.1531226 0.45387364 -2.3768038e-18)
(0.78939429 0.32150201 1.2683962e-18)
(0.20588667 0.12250896 0)
(0.20547118 -5.6316239 -3.8856395e-19)
(0.25238927 -5.3407587 -1.1240724e-19)
(0.48973673 -4.6889503 0)
(2.903271 0.37648728 0)
(3.0404984 0.12560059 -9.3417026e-19)
(2.6179615 -0.16290481 -8.3627317e-19)
(1.8353953 -0.42203646 -2.4620379e-20)
(0.95083946 -0.80544273 6.5224034e-20)
(0.056418604 -1.2949865 -8.3069374e-19)
(2.479444 0.5575081 1.1867821e-18)
(1.9008816 0.62464447 -1.1939147e-18)
(1.3542339 0.58267378 0)
(-0.1458344 -5.5975454 -1.148469e-19)
(-0.64551155 -4.912966 -1.8554604e-19)
(-0.42449509 -2.9175655 -2.2829994e-19)
(-0.7763638 -3.9924352 1.4388674e-20)
(-0.38820562 -2.0304504 0)
(0.94332161 0.46659062 1.2105485e-18)
(0.52025134 0.26201976 -2.5204418e-18)
(-0.11182066 0.064450718 0)
(-0.012200203 -5.5225808 2.7584309e-19)
(0.32247154 -5.1466589 0)
(0.99403961 -3.7993896 0)
(2.8625067 0.75846709 0)
(2.7029172 0.73896518 -1.0200176e-18)
(2.0886185 0.66509087 7.9676461e-19)
(1.2970458 0.43374962 -5.8640129e-19)
(0.27390105 -0.021123615 4.8754711e-19)
(-0.16087631 -0.45299532 -2.2008492e-19)
(2.5184507 0.78857746 -1.1850673e-18)
(1.9588854 0.82146573 1.197122e-18)
(1.3770794 0.74427544 0)
(-0.46527686 -5.2163763 8.8671183e-20)
(-0.81079858 -4.4654764 2.0065397e-19)
(-0.82188382 -2.8315631 1.0192549e-20)
(-0.93282239 -4.1106459 -1.542041e-19)
(-0.85297862 -3.2535543 -8.9765732e-21)
(-0.47150802 -1.2011883 1.9466004e-22)
(0.91182102 0.59741271 0)
(0.50040985 0.38001279 1.2508829e-18)
(-0.059758964 0.099745952 0)
(-0.12619685 -5.3193466 0)
(0.22745436 -5.0307939 -4.8458264e-20)
(0.77477507 -4.1419451 -3.955029e-20)
(2.5616167 1.1241958 0)
(2.4458837 1.2538096 1.017329e-18)
(1.9382061 1.3263588 6.1172589e-21)
(1.3761522 1.1270483 5.8018149e-19)
(0.56036065 0.49802878 0)
(-0.053610043 0.01330287 7.4950005e-19)
(-0.37895122 -0.52737913 0)
(2.2087899 0.99662873 4.8778357e-21)
(1.6652307 0.91426205 1.2494528e-18)
(1.096635 0.78443402 1.2511014e-18)
(-0.57854878 -5.1244575 9.1266066e-20)
(-1.0184355 -4.4569774 9.3533952e-20)
(-0.98369038 -1.9189177 -1.4930035e-19)
(-1.2270876 -3.5958122 2.4892422e-19)
(-1.237702 -3.1181941 -8.8632623e-20)
(-0.85832912 -1.3110251 -7.9184768e-21)
(0.64394699 0.57742345 -3.0108382e-22)
(0.19752628 0.28165913 0)
(-0.33295103 0.064804035 1.6164343e-18)
(0.015292367 -5.1937393 0)
(-0.43710426 -5.1387416 0)
(0.53612987 -4.5682606 5.8221853e-20)
(1.9005139 -2.790793 3.8598807e-20)
(1.9660339 1.9126274 0)
(1.5767188 2.3746387 -1.2584195e-18)
(1.0898614 2.5854652 -7.9624895e-19)
(0.66947651 2.3927204 -4.8771264e-19)
(0.26251703 1.6338729 -2.4350088e-19)
(-0.10290775 0.52733196 -1.9841524e-19)
(-0.38019258 -0.028585798 -1.1457822e-19)
(2.0051718 1.4607697 -5.5213498e-21)
(1.6059759 1.1438181 -1.2490339e-18)
(1.0667368 0.95679266 -1.2509571e-18)
(-0.90484978 -4.7039128 -2.713252e-19)
(-1.3095908 -3.9598008 0)
(-1.2693218 -1.98195 3.0193707e-21)
(-1.3672137 -3.5680642 -4.7591294e-21)
(-1.345664 -2.5652394 0)
(-0.91503546 -0.68920791 3.4083773e-19)
(0.58713199 0.71363959 3.2559243e-22)
(0.16407716 0.4149048 1.3523998e-18)
(-0.33994554 0.10447266 -3.1169242e-18)
(-0.0099610838 -4.8136131 3.6502897e-20)
(-0.59624919 -4.9503053 -1.7549924e-19)
(0.37776328 -4.373153 -3.8022567e-20)
(1.5821318 -2.9890442 0)
(1.3823321 2.274651 5.5074634e-21)
(1.0745396 2.9132599 1.2490198e-18)
(0.75099517 3.2776722 8.1374886e-21)
(0.52673992 3.2119287 7.3087578e-20)
(0.20124388 2.7345907 2.4328429e-19)
(0.060215417 1.6573551 2.8894364e-20)
(-0.45308872 0.61149577 1.1414968e-19)
(-0.77909549 0.018378173 -2.1560858e-19)
(1.4870017 1.6820518 0)
(1.1802235 1.2331434 -1.142738e-18)
(0.72573098 0.9428488 -3.2416433e-22)
(-1.1762632 -4.6611977 -1.0363756e-19)
(-1.5689591 -3.9517231 -2.5778714e-19)
(-1.3465999 -1.3752065 0)
(-1.561939 -3.0310401 -1.2485884e-20)
(-1.5710095 -2.5506578 0)
(-1.2533159 -0.69141652 4.0024576e-19)
(0.26361796 0.65088979 0)
(-0.15705074 0.29588557 7.0431213e-20)
(-0.52581392 0.057273243 8.3592886e-20)
(-0.29112043 -4.7005069 0)
(-0.97924919 -4.649121 1.8864313e-19)
(1.061652 -3.6389483 0)
(2.7877797 -1.6090895 0)
(0.3488747 3.3020525 -3.573987e-21)
(0.073906669 4.0040688 1.7893677e-18)
(-0.0067599037 4.3119294 0)
(-0.0074277489 4.1930282 7.587772e-19)
(0.042284572 3.7641483 0)
(-0.058493074 2.9121418 0)
(-0.5734735 1.589611 0)
(-0.93977239 0.73320696 3.7618013e-19)
(0.72394625 2.4067941 0)
(0.88581501 1.6274662 1.1432614e-18)
(0.59666008 1.1292728 2.77339e-22)
(-1.4876105 -4.1933369 3.6119346e-20)
(-1.8630644 -3.4094024 0)
(-1.6449807 -1.3664759 -7.7052909e-19)
(-1.8407085 -3.012732 1.5895074e-20)
(-1.7136959 -1.9520049 3.3523909e-19)
(-1.3562491 0.013858204 -4.1250426e-19)
(0.1851914 0.77845617 1.6058166e-18)
(-0.22477832 0.40788557 -1.42255e-18)
(-0.61090923 0.10014345 8.7687666e-20)
(0.18907983 -3.9960049 0)
(-0.69983895 -4.1616256 -2.1123371e-19)
(0.8639056 -3.4341887 0)
(2.4502557 -1.7389694 1.03721e-22)
(-0.24175705 3.4708621 0)
(-0.36280247 4.2674523 -4.1316041e-18)
(-0.26001425 4.6781049 0)
(-0.087103314 4.6523585 -1.9758597e-19)
(-0.040165615 4.3685148 0)
(0.088909909 3.8400119 -2.9331796e-19)
(-0.24854161 2.7721092 0)
(-0.86141296 1.5047746 -8.1105264e-19)
(-1.2774847 0.74294796 -5.2773724e-19)
(0.086995892 2.4642885 0)
(0.36659551 1.6563077 5.5202462e-19)
(0.16644291 1.0589818 -2.3319725e-18)
(-1.5069631 -4.0768136 1.686854e-19)
(-2.2012692 -3.3733492 0)
(-1.7943862 -0.69515163 9.4370764e-19)
(-2.0794396 -2.4668916 4.7207687e-20)
(-1.9919609 -1.9579817 -4.6447522e-19)
(-1.6439307 -0.0063763528 -4.8402596e-19)
(-0.14683321 0.64823159 -1.6050877e-18)
(-0.54478527 0.28129513 1.330615e-18)
(-0.6913267 0.04829195 1.3219337e-18)
(-0.043231653 -3.7303232 0)
(-1.0567464 -3.7650709 2.3404121e-19)
(1.8757376 -2.3895636 -3.4482873e-20)
(2.9271909 -0.8556304 -4.7851096e-23)
(-1.1953576 4.2349012 -1.4593085e-18)
(-1.0878529 4.8840933 4.7074581e-18)
(-0.65587906 5.1679145 2.967822e-18)
(-0.24821449 5.1457458 4.8582933e-21)
(-0.037956874 4.782219 0)
(0.0042551936 4.301408 2.8578986e-19)
(-0.29897409 3.5757319 4.6948944e-19)
(-0.87386825 2.3900106 1.4693089e-18)
(-1.3243186 1.4089397 -5.754941e-20)
(-0.93521718 3.2194402 0)
(-0.41416649 2.1037395 -5.5377639e-19)
(-0.14653938 1.3388257 2.3319733e-18)
(-1.9163182 -3.5768623 0)
(-2.3950962 -2.8398893 0)
(-2.03581 -0.74307938 0)
(-2.4130472 -2.4541251 -5.6580627e-19)
(-2.1751271 -1.3438471 4.2155813e-19)
(-1.7288133 0.64900597 -6.3807273e-19)
(-0.2831096 0.76876281 1.4894263e-18)
(-0.61698357 0.3681233 -2.5676807e-18)
(-0.85795084 0.080039745 -1.1413569e-18)
(0.94489169 -2.695631 0)
(-0.040885665 -2.8190018 -8.2180836e-19)
(1.7966185 -2.1299603 3.3386544e-20)
(2.5620285 -0.97690215 -1.665192e-21)
(-1.6493343 4.066697 1.4577764e-18)
(-1.4058447 4.8263701 -2.3500059e-18)
(-0.90491448 5.3089679 3.0790221e-18)
(-0.38817344 5.4312678 -1.5312785e-19)
(-0.050581184 5.2145254 0)
(0.09726411 4.7601011 0)
(0.057816102 4.2634618 1.1473453e-19)
(-0.4466741 3.2800687 -1.0296128e-18)
(-1.1307914 2.1150507 -3.5790612e-20)
(-1.5789628 1.3024701 6.3624878e-19)
(-1.4063983 3.0380128 0)
(-0.93430999 2.0283427 -2.9383878e-23)
(-0.56072065 1.1750632 1.2878372e-23)
(-1.5496939 -3.1251686 5.2907656e-18)
(-2.4389661 -2.6976991 0)
(-2.1432733 -0.10530895 0)
(-2.5916778 -1.8963859 5.2432374e-19)
(-2.467435 -1.3936375 3.5801567e-20)
(-1.9398953 0.54032791 7.1261512e-19)
(-0.60817101 0.61636974 -1.4896946e-18)
(-0.89737997 0.23774373 1.2375078e-18)
(-0.80011494 0.040204613 1.1387827e-18)
(0.94954218 -2.2785689 1.6464995e-19)
(-0.066018241 -2.2192655 1.3676987e-18)
(2.2400816 -1.3881034 1.6582413e-21)
(2.4574888 -0.44865345 2.9929652e-20)
(-2.2631391 4.3660118 0)
(-1.7774904 5.0084925 1.6635059e-21)
(-1.1306691 5.4528996 -1.2616207e-17)
(-0.5207011 5.7887347 -3.9657427e-18)
(-0.059461866 5.6107675 -1.1345571e-18)
(0.16323461 5.1565927 -6.3688811e-21)
(0.10283254 4.5257586 -5.6453665e-19)
(-0.37939391 3.7188574 1.0023029e-20)
(-1.0596404 2.748773 6.1612709e-19)
(-1.549601 1.8492447 -6.9321577e-19)
(-2.243109 3.5182253 0)
(-1.7945251 2.4285096 2.3846522e-19)
(-1.1494528 1.4474889 0)
(-0.90396894 -2.7726683 -4.2351809e-18)
(-1.9736284 -2.665951 -2.2025522e-18)
(-2.6323302 -2.1705311 7.9290843e-19)
(-2.3659125 -0.24056776 0)
(-2.8057534 -1.9110125 -8.0492269e-19)
(-2.5808899 -0.8310389 0)
(-1.9410334 1.0785087 -1.4473757e-18)
(-0.88048269 0.72528538 1.0701992e-18)
(-0.98394992 0.29087447 0)
(-1.0711377 0.030588912 0)
(1.5423172 -1.531315 -2.2140263e-19)
(0.79777728 -1.570719 -3.9365721e-19)
(1.9950181 -1.3029975 0)
(2.0308529 -0.60522862 -1.2508058e-20)
(-2.5486435 3.9641592 0)
(-2.1342769 4.6651417 0)
(-1.5026402 5.2966573 6.5568908e-18)
(-0.8098515 5.7247328 3.9665985e-18)
(-0.16915442 5.9882687 1.5180941e-19)
(0.10251974 5.6943459 0)
(0.32970555 5.1101866 6.3620204e-21)
(0.021757553 4.3538009 -1.0361254e-20)
(-0.6900338 3.4377111 -1.0019332e-20)
(-1.323828 2.4681938 6.9156293e-19)
(-1.743975 1.6744725 7.3547334e-19)
(-2.600943 3.0519968 2.9158454e-19)
(-2.0815322 2.0845793 -2.3939474e-19)
(-1.4143024 1.1666262 0)
(-0.059120191 -1.7284681 -3.1902954e-18)
(-1.2324864 -2.0449329 -1.3763229e-18)
(-2.1599404 -1.8796043 0)
(-2.3630113 0.28838375 0)
(-2.8561296 -1.3903539 -2.3180842e-20)
(-2.8238264 -0.95008147 -7.5256063e-19)
(-2.1428362 0.90810291 0)
(-1.112671 0.53040741 -1.0707408e-18)
(-1.1978457 0.15186252 -9.29543e-19)
(-0.81850766 0.020365827 0)
(1.3862473 -1.2183701 3.915591e-19)
(0.50690971 -1.3476629 1.4315524e-18)
(1.1278397 -1.2516234 -3.1182162e-19)
(1.967884 -0.89119144 0)
(1.8199999 -0.22919488 -1.5412533e-20)
(-2.8261158 3.8721563 0)
(-2.234516 4.5673807 0)
(-1.5480439 5.1948717 0)
(-0.79423404 5.7297624 0)
(-0.14415279 6.0631128 9.8290998e-19)
(0.20132117 6.00602 0)
(0.39210729 5.4916017 1.1361159e-18)
(0.052609512 4.6985427 0)
(-0.61807876 3.8489305 0)
(-1.2093725 2.9447649 0)
(-1.6451694 2.1073914 7.2872658e-19)
(-3.1390681 3.0910955 -2.915518e-19)
(-2.816749 2.240643 0)
(-2.0833386 1.3311236 -7.8456106e-19)
(-0.57893348 -1.727891 3.0278853e-18)
(-1.5558999 -1.7439106 0)
(-2.2778944 -1.4486861 -7.4910921e-19)
(-2.5940531 0.076430808 0)
(-2.6773625 -1.3460015 7.5415951e-19)
(-2.8024859 -0.46826334 7.567787e-19)
(-2.0301879 1.3165486 0)
(-1.4797431 0.60231545 8.4560613e-19)
(-1.3088898 0.17113616 9.2955364e-19)
(-1.1837905 -0.015510534 6.531459e-24)
(1.5843661 -0.91021418 4.6778215e-20)
(0.61341108 -1.0458453 4.811266e-19)
(1.0967001 -0.84681474 0)
(1.509567 -0.39057644 1.0187877e-19)
(-3.0569537 3.2218832 0)
(-2.5162423 3.9523246 -8.5057726e-19)
(-1.8627784 4.6615879 0)
(-1.1069909 5.3413274 0)
(-0.37862141 5.882284 1.2211555e-18)
(0.15695429 6.1270688 -3.8506072e-18)
(0.49814886 5.9635958 -2.4811156e-18)
(0.39489214 5.4021596 -6.6127943e-21)
(-0.22658667 4.4911551 0)
(-0.89185622 3.5575643 0)
(-1.4063737 2.6676321 -7.2794467e-19)
(-1.7941004 1.860884 0)
(-3.2610632 2.516856 0)
(-2.928724 1.7398921 -5.8917637e-19)
(-2.162954 0.95502983 1.4968156e-18)
(0.017367402 -1.1414938 2.3620544e-19)
(-0.78204044 -1.2006754 -2.6445822e-19)
(-1.5415802 -1.082551 1.2442002e-18)
(-2.462298 0.48381357 2.5140788e-20)
(-2.659143 -0.90146846 -2.2739685e-20)
(-2.8223279 -0.60477066 0)
(-2.2255845 1.0659749 7.8613596e-19)
(-1.5748707 0.3734845 -8.4629211e-19)
(-1.4168313 0.04479739 -6.4901356e-24)
(-0.78456556 -0.00031812156 -8.1234187e-19)
(1.4838354 -0.65356268 1.9742222e-20)
(0.24574537 -0.91590676 -4.3709434e-19)
(0.70269828 -0.88624514 -3.3718182e-19)
(1.1341421 -0.67380344 -1.9143217e-19)
(1.2162018 -0.23864215 -1.9973368e-20)
(-3.0427467 2.7952585 0)
(-2.4269518 3.4801014 8.5057065e-19)
(-1.8047191 4.2298995 0)
(-1.104855 5.0158639 9.0265904e-20)
(-0.34264946 5.6913077 -1.9632534e-18)
(0.15054234 6.0969692 1.1649506e-18)
(0.53641826 6.1210451 3.1950434e-20)
(0.40896522 5.7168219 2.1524719e-21)
(-0.17919385 4.8886898 0)
(-0.75020461 3.9460882 0)
(-1.2140836 3.0279614 -1.056429e-20)
(-1.5878272 2.1693977 0)
(-3.4531004 2.1867415 4.5553265e-19)
(-3.3746041 1.5799028 5.8919314e-19)
(-2.7177631 0.9381459 -7.1131897e-19)
(-0.33850072 -1.0049685 2.6642243e-19)
(-1.0158183 -0.96282289 -5.7932408e-19)
(-1.6110088 -0.76386967 -6.4810358e-19)
(-2.6062235 0.23121425 -8.1923061e-19)
(-2.0776212 -0.74965301 2.2842694e-20)
(-2.6639742 -0.21144094 7.9263647e-19)
(-1.9887418 1.3366057 -7.8834415e-19)
(-1.9501164 0.36895726 1.0478553e-23)
(-1.5334669 0.019686409 0)
(-1.1761884 -0.069552025 8.1449833e-19)
(0.25620351 -0.69144821 1.6395917e-19)
(0.63742111 -0.63419802 -1.8925685e-19)
(0.97500947 -0.49695961 -1.0800371e-19)
(1.3238471 -0.093512421 0)
(1.0154994 -0.34763509 -1.9487746e-20)
(-3.192213 2.1312333 -1.3655782e-23)
(-2.6485858 2.7719555 0)
(-2.0419338 3.4891932 0)
(-1.4198967 4.303009 9.1922788e-20)
(-0.64389168 5.1981935 1.1621351e-18)
(0.04368127 5.7900379 3.6048774e-18)
(0.54467444 6.1289345 1.3190538e-18)
(0.66373701 6.0462977 -3.8489014e-19)
(0.27528306 5.4726833 -2.1555979e-21)
(-0.34698904 4.5359634 -5.38909e-19)
(-0.90140389 3.5778081 -5.7925597e-19)
(-1.2940505 2.6761288 1.0577283e-20)
(-1.7060584 1.8198404 0)
(-3.4718692 1.5764611 -4.5633376e-19)
(-3.3035808 1.0595993 0)
(-2.6144502 0.550629 6.028685e-19)
(-0.16281817 -0.68402838 0)
(-0.63864127 -0.61946802 9.4946621e-20)
(-1.0987847 -0.48577092 0)
(-2.3542032 0.50588566 0)
(-1.990509 -0.42773419 7.5748977e-19)
(-2.2993282 -0.27468174 -7.5858821e-19)
(-2.1159317 0.98857133 0)
(-1.888165 0.13783828 0)
(-1.5096957 -0.077066758 7.4074936e-19)
(-0.67629362 -0.02277935 0)
(0.3285421 -0.57872094 1.1378002e-20)
(-0.039338815 -0.58563515 -1.5758682e-19)
(0.6994713 -0.49437645 3.3708015e-19)
(0.94089689 -0.047785336 5.5433485e-20)
(0.83246166 -0.22617102 1.9032975e-20)
(-2.9838194 1.4996137 3.4313758e-19)
(-2.4596331 2.1258654 3.4586916e-19)
(-1.9275819 2.8468966 -2.0538265e-24)
(-1.3727528 3.6979662 -3.6419571e-20)
(-0.61675675 4.6937662 -6.5044623e-19)
(0.0072026087 5.4113167 -1.5067171e-18)
(0.5807212 5.9803941 0)
(0.69233902 6.0285324 8.3884343e-19)
(0.37609678 5.5802984 4.1542257e-19)
(-0.1309813 4.7600036 5.4162763e-19)
(-0.58670219 3.7914298 1.0805171e-18)
(-0.97753933 2.8606047 4.6684176e-21)
(-1.3886155 1.9762829 5.5254934e-21)
(-3.3738895 1.0173723 -1.094586e-23)
(-3.4339615 0.66506218 0)
(-2.9367925 0.34398878 -6.0287698e-19)
(-0.42963638 -0.54001389 4.0554946e-19)
(-0.8286769 -0.44530864 -5.0207275e-19)
(-1.178602 -0.29148004 0)
(-2.1990863 0.27434831 8.1359287e-19)
(-1.4558598 -0.27236589 0)
(-2.0916474 -7.3776618e-06 -1.230442e-20)
(-1.7968993 1.1285564 7.5380261e-19)
(-2.1810029 0.032471396 0)
(-1.6096124 -0.15550425 -7.4074726e-19)
(-1.0473349 -0.12431358 -8.1766558e-19)
(0.27160051 -0.36947262 -1.1227076e-20)
(-0.076612946 -0.36835412 2.6877975e-19)
(0.58972045 -0.31985932 -1.4975371e-19)
(0.87227527 -0.10763502 -3.2611108e-20)
(0.62923432 -0.21585475 0)
(-3.0548703 0.82712545 -3.4368418e-19)
(-2.5999038 1.3757645 -3.4636667e-19)
(-2.0708537 2.0660064 -5.210932e-24)
(-1.5706386 2.8299072 -1.4621413e-19)
(-0.95459381 3.7791487 3.209674e-19)
(-0.11259508 4.7864583 9.604958e-19)
(0.35520429 5.5013347 -5.2005885e-19)
(0.89600172 5.911038 3.8616747e-19)
(0.81426301 5.7762741 -4.1053665e-19)
(0.35347175 5.159254 3.5868554e-19)
(-0.17821396 4.2648108 -5.0397874e-19)
(-0.61405424 3.3229826 2.0510456e-21)
(-1.0401037 2.4190339 -4.6754462e-21)
(-1.5091935 1.5697178 -7.5943636e-19)
(-3.3211624 0.46006927 0)
(-3.2402983 0.22296109 -4.5403248e-19)
(-2.6991354 0.024858033 0)
(-0.4199768 -0.33033895 3.4063054e-19)
(-0.73339096 -0.2546099 1.0364879e-18)
(-0.99466668 -0.14269451 6.6776388e-19)
(-1.9065784 0.4576399 5.9145183e-21)
(-1.4090392 -0.085061642 -5.7990857e-21)
(-1.634076 0.0072219137 -7.8471656e-19)
(-1.8136374 0.79999328 -8.1565139e-19)
(-1.976119 -0.15253097 0)
(-1.4467653 -0.20401517 0)
(-0.48546842 -0.046512565 8.1577725e-19)
(-0.0010080016 -0.2765004 7.0362785e-21)
(0.33459647 -0.26444892 1.5174865e-19)
(-0.34060628 -0.25700091 -6.1837967e-19)
(0.52897589 -0.044265951 -3.4799031e-20)
(0.37224683 -0.095176077 -8.4768015e-20)
(-2.7231389 0.071950548 0)
(-2.3497529 0.59138109 2.2971107e-19)
(-1.9160755 1.305287 0)
(-1.4675481 2.0883121 0)
(-0.94448176 3.0589633 -9.1811504e-20)
(-0.086263681 4.1249449 -1.4516182e-19)
(0.49979532 4.9901293 5.2008798e-19)
(1.0418725 5.4694085 -8.4159139e-19)
(1.0431642 5.3692174 0)
(0.70796808 4.927249 -9.5030991e-20)
(0.26622639 4.1859526 0)
(-0.18181238 3.3097842 0)
(-0.64335688 2.4324094 -4.0425197e-19)
(-1.1316302 1.5903512 0)
(-2.9990382 -0.21233734 -9.3016949e-24)
(-3.0912726 -0.32469572 4.5403077e-19)
(-2.7652195 -0.3259495 0)
(-0.6481502 -0.21039375 -4.8415267e-19)
(-0.90464182 -0.12965972 -5.495522e-19)
(-1.0762268 -0.033604329 -6.6996433e-19)
(-1.5904677 0.316816 8.1387665e-19)
(-1.160164 -0.0046994097 -7.5005691e-19)
(-1.4672936 0.15541873 -2.0793929e-20)
(-1.4745674 0.85496913 -8.1260118e-19)
(-2.1245952 -0.35157744 -1.8118102e-23)
(-1.5043947 -0.33265062 7.8125398e-19)
(-0.80063999 -0.17359833 9.4788372e-19)
(-0.11178549 -0.10531503 -7.0270096e-21)
(0.14096134 -0.1048724 -1.442736e-19)
(-0.36083698 -0.094818619 3.0258584e-19)
(0.44596172 0.033885565 4.5457289e-20)
(0.25275618 -0.029379745 9.1086198e-20)
(0.06154113 -0.053346292 1.5273e-19)
(-2.6517034 -0.52325224 -2.6570263e-19)
(-2.4036414 -0.16533492 -4.4241958e-19)
(-2.0300559 0.47238713 0)
(-1.5615961 1.2732415 0)
(-1.1693706 2.0551845 0)
(-0.35574639 3.2235528 -3.2430382e-19)
(0.18196041 4.1957613 0)
(1.1678945 4.9121185 0)
(1.3649281 5.143892 -1.4235839e-22)
(1.1565448 4.9937748 -2.5810476e-19)
(0.71262655 4.4345358 -5.5155392e-22)
(0.23637698 3.6474932 2.5545814e-19)
(-0.23799755 2.7994187 4.0421603e-19)
(-0.76974897 1.9571879 0)
(-1.2381384 1.1901968 1.6389233e-18)
(-2.817835 -0.65006074 0)
(-2.8086503 -0.61866023 0)
(-2.4455804 -0.53859286 1.8072515e-23)
(-0.58631509 -0.071097532 -8.9624668e-19)
(-0.76652941 -0.026903634 5.3919562e-19)
(-0.85417096 0.013135639 7.0612461e-19)
(-1.3279616 0.39597054 8.5488935e-19)
(-1.1337586 0.07392331 7.5473957e-19)
(-1.2002023 0.14650861 8.21133e-19)
(-1.326634 0.60343851 -8.5171832e-19)
(-1.8123719 -0.45309667 0)
(-1.2175086 -0.3138961 -1.6036037e-18)
(-0.23792181 -0.075214775 -2.0142367e-18)
(-0.12484646 -0.054701851 0)
(-0.30085576 -0.050282579 -3.0215206e-19)
(-0.44562847 -0.04443227 4.1720369e-19)
(-2.3119327 -1.2650314 2.6571232e-19)
(-2.0770948 -0.97454977 4.2709881e-19)
(-1.805242 -0.4098615 3.9987202e-24)
(-1.4353724 0.39864036 0)
(-1.0536565 1.1957598 4.1442658e-20)
(-0.36070431 2.3237543 9.1550197e-20)
(0.41246009 3.3838756 0)
(1.3825161 4.1604497 1.0359598e-19)
(1.6655115 4.491104 2.3575871e-23)
(1.5069849 4.4120004 -9.8136795e-20)
(1.1650472 4.0281934 0)
(0.72651452 3.3896041 -2.5300864e-19)
(0.21495221 2.6310358 -3.4439545e-23)
(-0.37065356 1.8584774 0)
(-0.88771016 1.1281947 -8.3045088e-19)
(-2.4821296 -1.3302631 0)
(-2.4739134 -1.1947103 0)
(-2.2701566 -0.96135831 1.5238553e-23)
(-0.53850717 -0.034493408 -6.2894006e-20)
(-0.56318157 -0.017254947 0)
(-0.53837821 0.0012555628 -7.058059e-19)
(-1.0939523 0.29146524 -2.2773356e-20)
(-0.8398575 0.059712504 -7.8496844e-19)
(-1.05967 0.17968165 -1.6694886e-18)
(-1.0069795 0.59571848 9.0859877e-19)
(-1.7933835 -0.71591391 0)
(-1.2150216 -0.4854745 8.2180086e-19)
(-0.45047243 -0.20197258 -2.2610746e-19)
(-2.150394 -1.6357941 0)
(-2.0074347 -1.522559 -2.149981e-19)
(-1.8278384 -1.168823 0)
(-1.5112055 -0.46759161 1.2347515e-19)
(-1.0598394 0.3920959 -4.1498602e-20)
(-0.56348302 1.0519582 4.6144513e-21)
(0.11164846 2.3997847 -9.2354705e-25)
(1.2311568 3.4659481 -8.1927928e-20)
(1.8028131 4.0411624 -2.5985495e-20)
(1.8557446 4.1962038 1.3450445e-19)
(1.5733624 4.0109806 0)
(1.1579585 3.5324337 0)
(0.6527488 2.8652401 1.4494883e-22)
(0.044738443 2.1266751 -5.7529424e-19)
(-0.55688957 1.4207427 0)
(-0.89102007 0.81211334 -9.086283e-19)
(-2.2313497 -1.5792497 0)
(-2.1525938 -1.3457604 -1.5214325e-23)
(-1.9074377 -1.0229313 0)
(-0.85179987 0.26714033 8.7083024e-19)
(-0.44205655 0.020800558 1.6068681e-18)
(-0.72506044 0.10562737 2.8535522e-20)
(-0.84540377 0.40661775 0)
(-1.4231002 -0.71250916 1.1832111e-23)
(-0.83474528 -0.39441282 7.8809792e-24)
(0.037962747 -0.098464056 1.2943317e-18)
(-1.8164735 -2.2013094 -9.9713407e-24)
(-1.7191622 -2.1690219 0)
(-1.6193363 -1.9306882 0)
(-1.4297392 -1.3564102 4.5127564e-20)
(-0.9376566 -0.45024282 1.0550352e-19)
(-0.42572237 0.30533291 3.7161298e-20)
(0.15086421 1.4250241 -1.0300891e-19)
(1.3991413 2.6244146 3.1469503e-20)
(2.1060392 3.2781874 2.5958032e-20)
(2.1730255 3.471011 -1.980734e-20)
(1.9619851 3.3984599 -2.0413566e-20)
(1.6056205 3.0628702 0)
(1.0875966 2.5335349 -4.1207114e-23)
(0.42805608 1.9154083 5.7666059e-19)
(-0.2180617 1.2534487 -3.0605035e-22)
(-0.55805339 0.72313312 0)
(-1.8786136 -2.0911653 -4.1251388e-19)
(-1.8084024 -1.83039 0)
(-1.5900442 -1.4286841 0)
(-0.50730195 0.14499104 9.0087854e-19)
(-0.28127029 0.0434714 -8.4929491e-19)
(-0.52812782 0.33165965 9.1699833e-19)
(-1.2572883 -0.99102853 7.4356936e-19)
(-0.76242266 -0.60503853 0)