/*--------------------------------*- C++ -*----------------------------------*\
| =========                 |                                                 |
| \\      /  F ield         | OpenFOAM: The Open Source CFD Toolbox           |
|  \\    /   O peration     | Version:  2112                                  |
|   \\  /    A nd           | Website:  www.openfoam.com                      |
|    \\/     M anipulation  |                                                 |
\*---------------------------------------------------------------------------*/
FoamFile
{
    version     2.0;
    format      ascii;
    arch        "LSB;label=32;scalar=64";
    class       surfaceScalarField;
    location    "0.335";
    object      ddtCorrDdt0(phi);
}
// * * * * * * * * * * * * * * * * * * * * * * * * * * * * * * * * * * * * * //

dimensions      [0 3 -2 0 0 0 0];

oriented        oriented;

internalField   nonuniform List<scalar> 
23855
(
0.00051893236
0.0001560949
0.00036283777
0.00103366
-0.00087756505
0.0003628379
0.00046603337
0.00056762689
0.00014258029
0.00021048909
0.00015234916
-0.00084530117
0.0013113347
0.0007781161
0.0016268697
0.00015234924
0.00078156811
0.00092737405
0.00038396092
0.00054093716
0.00023717923
0.00021738966
-6.5040631e-05
0.0016306373
-0.00084906914
-0.00041193874
0.0013393123
0.00092489822
0.00045456896
-6.5040551e-05
0.0012186986
0.0011202489
-0.00010091384
0.0014402264
0.00097307396
-4.8175894e-05
0.00055205903
-9.7490197e-05
0.00020258858
-0.00026762972
0.0013280349
-0.00010933644
0.00161054
-0.0004902912
0.00087216007
-4.4788437e-05
0.0014850143
0.00050388334
0.0001050985
-0.00026762963
0.0012832465
0.0015012037
0.0016766497
0.0015405086
-0.00066834875
-0.00094833155
0.0024333457
0.0009451473
-0.00044126406
0.00048840688
-0.00038330866
0.00015358591
-0.00042121628
-0.00094272037
0.0022259671
0.00055848293
0.0016147914
6.185803e-05
0.00059217685
0.00027679888
0.0010794724
0.0013538738
4.7143055e-05
-0.00022972257
-0.00042121618
0.0010102587
0.0012157084
0.0021732741
0.0022853758
0.0020589989
-0.0014668217
0.0013452598
-0.0010684605
-0.0018364031
0.0029158758
0.0023641324
0.00077364982
-0.00072650667
0.00037232732
-0.00060205012
8.8656026e-05
-0.00050987299
-0.00093013678
0.0021458451
0.0012431372
0.0015571122
0.00072826356
0.00022259577
-0.00012156165
-0.00029481037
0.0020690567
0.00084682038
0.00032749303
0.0020366398
-0.00035417909
-0.00051339388
-0.0005098729
0.0024733382
0.0028002495
0.0028133083
0.0023576068
-0.00213501
0.0016123188
-0.0017338796
0.00099437233
-0.0012891821
0.004105697
-0.0025201356
0.0033669563
0.00055290869
-0.00090708765
0.00023336568
-0.0007467598
2.5242293e-05
-0.00053511601
-0.0007215959
0.0031949345
0.0020786538
0.0013549674
0.0014583412
-0.00016252888
-0.00052269124
-0.00073950701
-0.00073627316
0.00042196274
0.0036837345
0.0033717729
-4.816965e-06
-0.00067372171
-0.00072151729
-0.00053511593
0.0036168978
0.0034336214
0.0030871298
-0.0025337726
0.0023712435
0.0017294098
-0.0022521005
0.0011020418
-0.001841548
0.00063117141
-0.0013674441
-0.0013567537
0.0050404882
0.0020150187
-0.0026965163
0.0026916985
0.00031428783
-0.00098800957
9.0279347e-05
-0.00081179698
-3.2723479e-05
-0.00050239335
-0.00076605981
0.0043829583
0.0026675618
0.00085801918
0.0022291109
-0.00080436307
-0.00032527312
-0.0011500587
-0.0012103764
-0.001053156
0.0023230836
0.0027174045
-0.002119842
0.0041348596
0.00057185623
-0.00089772995
-0.00084452026
-0.00050239327
0.00159126
0.0027916986
0.0035255812
0.0031383523
-0.0024963535
0.0016919905
-0.0026981457
0.002372872
0.0010547438
-0.0022048018
0.00058762533
-0.0017980011
0.00029139529
-0.0013445512
0.0039143441
-0.002096497
0.0048139014
0.0020383621
-0.002758825
0.00333068
9.1702747e-05
-0.00098943296
-4.4007251e-05
-0.00080051345
-8.1704383e-05
-0.00042068989
-0.00033999916
0.0031316983
0.0031855821
0.00024341464
0.0028949378
-0.00144161
-0.0010061556
-0.00038595324
-0.0016171765
-0.0015066056
-0.0012528482
0.00078440655
0.003129938
0.0016182014
0.0031956998
-0.0028807374
0.0049190982
0.00044994301
-0.0010334399
-0.00088221762
-0.00042068979
0.003916105
0.0034289968
0.0032419563
-0.0023714528
0.00092984299
-0.0025757332
0.0015695774
-0.0026790642
0.0022931107
0.00045744356
-0.0020746194
0.00017195922
-0.0016785645
-2.1499707e-06
-0.0012506984
0.0047481396
-0.0017322911
0.0049279905
0.0031868066
-0.0026153122
0.0030652538
-0.00010957097
-0.00092386941
-0.00016301825
-0.00071919984
-0.00012058829
-0.00030010265
0.00039456774
0.0035215374
0.0038235645
-0.00019085725
0.0034328136
-0.0019140094
-0.0016458905
-0.0011094873
-0.00032220134
-0.0019026601
-0.0016807142
-0.0013602691
0.0010625163
0.0036856232
0.0012488964
0.0036790941
-0.00093096873
0.0041177741
0.0028836506
0.00018160303
-0.0010868874
-0.00083978789
-0.00030010255
0.0045840538
0.0036327072
0.0033552349
-0.0022648319
0.00035082329
-0.0024697042
0.00082381326
-0.0024600618
0.0013505739
-0.0021658314
0.0018436302
2.6787765e-05
-0.0019294472
-0.000173719
-0.0015069953
-0.00026409088
-0.0010961788
0.0049345195
-0.00098422452
0.0046633175
0.0019526818
0.0031335498
-0.0017954449
0.0019770473
-0.00029407453
-0.0007928133
-0.0002661712
-0.00057361712
-0.00014856071
-0.00015154315
0.00066961835
0.0039144352
0.0043023256
-0.00033372952
0.0036889644
-0.0022380443
-0.002118881
-0.0016362487
-0.00081525778
4.8185697e-05
-0.0021031661
-0.0017710859
-0.001390253
0.0010076971
0.003926822
0.0009868893
0.0036764287
-0.00094095285
0.0028936338
-0.00078088175
0.0039144311
0.0010360949
-0.0010589841
-0.00072217755
-0.00015154307
0.0049221322
0.003968596
0.0032846997
-0.0021239833
-0.00011405992
-0.0022930864
0.00017420569
-0.0020782316
0.0004419814
-0.0016017297
0.00078647065
-0.0010614113
0.0011095969
-0.00035863657
-0.0017445291
-0.00048162528
-0.0012894612
-0.00051202221
-0.00087823141
0.0049137108
-0.00028851641
0.0039649441
0.0021127516
0.0036259153
-0.00069039438
0.0017264887
-0.00046397297
-0.00059501153
-0.00035247819
-0.00036969976
-0.00016512959
1.3585116e-05
0.00061183388
0.0043102981
0.0045804298
-0.00013179053
0.0034164901
-0.00248262
-0.0024071464
-0.0019040258
-0.0011597482
-0.00027494051
0.0004192032
-0.0022261544
-0.0018014831
-0.001342204
0.0010124143
0.0039012963
0.00049634498
0.0034685996
-0.00065653903
0.0027692905
0.0024380084
0.0011879071
0.0010699502
-0.00094748925
-0.00053482905
1.3585135e-05
0.0053227122
0.0044486395
0.0025340939
-0.0016062289
-0.00087639027
-0.0014829404
-0.00092420569
-0.0010834013
-0.00082062598
-0.00069725558
-0.00046249565
-0.00025416283
-2.0779468e-05
-1.7478048e-05
0.00043668111
-0.00083884415
-0.0013873099
-0.00081045203
-0.00099103134
-0.00074002612
-0.00060217825
0.0043976407
1.1237793e-05
0.0034573614
0.0011152763
0.0016540142
0.0024492466
0.0023031836
-2.841773e-05
0.0010983678
-0.00061673723
-0.00033075239
-0.00042606554
-0.00010876406
-0.00019223424
0.00020581786
0.0019003229
0.0034223895
0.0016195118
0.0028291278
-0.00035800733
0.0028921012
-0.0024450732
-0.0023593306
-0.0020076065
-0.001517881
-0.00071665824
-3.825709e-05
0.00040826396
-0.002197762
-0.0017310573
-0.001218915
0.00077150026
0.0036261404
0.00024117215
0.0032161896
-7.1114967e-06
0.0016611256
-0.00022458869
0.0026738351
0.0020785951
0.0010912567
-0.00075681739
-0.00030099799
0.00020581785
0.0035198345
0.0041938893
0.0024711206
0.0011837814
-0.00029684584
-0.0021482269
0.00018061137
-0.0025399426
0.00059444154
-0.0026020502
0.00077586383
-0.0022937479
0.00076230247
-0.0014789635
0.00047904472
-0.00051730305
0.00042488259
-1.6618895e-05
-0.0016265105
-0.00057125058
-0.0012286288
-0.00050242788
-0.00096836724
-0.0002505478
0.0038673123
-2.0477683e-05
0.0032366668
-2.6470961e-05
0.001687597
0.0026533577
0.0020521239
0.00050686271
0.00058439368
-0.00073558444
-2.1233466e-05
-0.0004628081
0.00016180923
-0.00017868122
0.0003844973
0.00061619005
0.0029036446
0.00055035478
0.0036435344
0.0030873106
-0.0012053574
0.0023891385
-0.0019233566
-0.0019676154
-0.0019455003
-0.0018261854
-0.0015314448
-0.00099991845
-9.2419991e-05
0.00049024422
-0.0017998796
-0.001470795
-0.00098613173
6.4555031e-05
0.0038027572
-0.00013842255
0.0033750896
0.00054972139
0.0011378751
0.00017700888
0.002476348
0.002229133
0.0011341153
-0.00048404098
-1.6871678e-05
0.00038449728
0.0034539988
0.0037080892
0.0018819532
-0.00011867208
0.0014806192
-0.0034039761
0.0019434269
-0.0039110442
0.0020899604
-0.0040354635
0.001999395
-0.003825583
0.0018239961
-0.0033554425
0.0015025926
-0.0025025118
0.0012870778
-0.001379498
0.0011649206
-0.00067467664
-0.0026279183
0.00082803973
-0.00179353
0.00032273591
-0.0012102887
0.00022415711
0.0036643349
0.00035110703
0.0030239817
-0.00061248106
0.0017503566
0.0028274555
0.0016166518
0.0011761995
-4.2084631e-05
-0.00079258805
0.00030854647
-0.00047567473
0.00045880195
-0.00016571003
0.00055020527
0.00078008019
0.0026739186
0.00018365521
0.003524434
0.0026620333
-0.0019501031
0.0018314309
-0.0011472994
-0.001460549
-0.0018210828
-0.0020360671
-0.0020015858
-0.0018528493
-0.0012154336
-0.00021457713
0.00050152308
-0.00096549061
-0.00088755279
-0.00056843046
-0.00037231257
0.0040366477
-0.00040411634
0.0034280982
0.0011763153
0.00057404079
0.00072111127
0.0021063435
0.0023377633
0.0011342307
-0.00016712766
0.00029309225
0.00055020527
0.0028575734
0.0031521217
0.00071193032
-0.00077203246
0.0029326045
-0.0040799048
0.0031153757
-0.0045759271
0.002932854
-0.0047539396
0.002603291
-0.0046393599
0.002267538
-0.004269124
0.0019756323
-0.0038284808
0.0018243649
-0.0030397976
0.0017798782
-0.001994455
0.0017252097
-0.0012236869
-0.003295593
0.0023301025
-0.0023887813
0.0015012288
-0.0014511041
0.00088267359
0.0036325311
0.00085309958
0.0025749976
-0.0012014196
0.0017754609
0.0029594434
0.0011363436
0.0017018199
-0.00056758967
-0.00084662291
0.00067949469
-0.0004334224
0.00072651355
-0.00013208646
0.00068228959
0.0013216283
0.0015359453
0.00061097433
0.0025411476
0.0020335588
-0.0020424935
0.0012704614
-0.00036298854
-0.00096452864
-0.0016430721
-0.0021506473
-0.0023718206
-0.002293491
-0.0020041156
-0.0012599193
-0.0002692453
0.00047813307
-5.8679045e-05
5.012471e-05
3.6051117e-05
0.00092904802
0.0027034833
-0.00052698716
0.0031019843
0.0016784345
9.702589e-05
0.0013019003
0.0016575424
0.0024382442
0.0011108448
0.00024607287
0.00059442745
0.00068228962
0.0021469195
0.00083840318
0.0017027445
-8.9346233e-06
-0.00089407604
0.0036893323
-0.004052322
0.0036662244
-0.0046307547
0.0034489561
-0.0050920299
0.0031144003
-0.0052650484
0.0026842759
-0.005056096
0.0023146523
-0.0046081418
0.0019696577
-0.0039737721
0.0019312864
-0.003191205
0.0020548014
-0.0023240467
0.0020664747
-0.001588342
-0.0033572229
0.0032985432
-0.0024451954
0.0024953198
-0.001565005
0.0016010558
0.001767451
0.0021764961
0.001273292
0.0018286914
-0.0016999145
0.0017969408
0.0029308347
0.00073832978
0.0020289768
-0.00091813247
-0.00082940308
0.0010754754
-0.00035411119
0.00094853761
-7.195266e-05
0.00075424018
0.0012384131
0.00090850644
0.00030220107
0.0014005437
0.0012294787
-0.0016731559
0.00077907995
0.00033210968
-0.00038609683
-0.0011817974
-0.0019776286
-0.0025807716
-0.0027414429
-0.0026384838
-0.0020424857
-0.0011364036
-0.00025757211
0.00044063477
0.0008533476
0.00093031478
0.00077165317
0.00078309193
0.0009843593
0.00023388949
0.0019426067
-0.00063339588
0.0024620872
0.0020072608
-0.00021032038
0.0017304716
0.0012003627
0.0024688017
0.0010891283
0.00072136473
0.0008765853
0.00075424022
-0.00039768229
0.0013061889
0.0010852929
0.0010028614
-0.00044367728
-0.00082971449
0.003836108
-0.0035039992
0.0037359194
-0.0041220168
0.0035276808
-0.0047094783
0.0032236329
-0.0052012613
0.0028863568
-0.0054671275
0.0025972234
-0.0053386652
0.0022293512
-0.004867834
0.0020765771
-0.0041190625
0.0021773101
-0.0033137141
0.0022551279
-0.0025127005
0.0022317419
-0.0017911076
-0.0028354585
0.0036888052
-0.0021436443
0.0030739584
-0.0013745411
0.0021461938
0.0012182488
0.001309211
0.0013424012
0.0011196854
-0.0020199051
0.0018095851
0.0025427642
0.00044889668
0.0021759833
-0.0010868554
-0.00068925387
0.001410618
-0.00023356914
0.0011101535
-7.4922181e-06
0.00076173044
0.00086251155
0.00015142061
0.00093387194
-0.0002045701
0.0012074314
-0.001411276
0.00058156116
0.0010006498
0.00023192126
-0.0005943348
-0.0014858446
-0.0023149041
-0.0028699037
-0.0031093137
-0.0027912568
-0.0019417524
-0.0010585863
-0.00028095868
0.00038487569
0.0015451609
0.0016994174
0.0014569403
0.00057999342
0.00063825509
9.8387237e-05
0.0012108238
-0.00052259871
0.0016422841
0.0021545588
-0.0003449739
0.0018218206
0.00072094341
0.0022707176
0.0010677034
0.0011770493
0.0011026616
0.00076173048
-0.0005487645
0.00073141413
0.00072930183
0.00065866657
0.0012740583
-0.00069249723
0.0034910945
-0.0024904452
0.0033471269
-0.0031152054
0.003212767
-0.003807101
0.0030726924
-0.0045585361
0.002822517
-0.0051374202
0.0025978238
-0.0054677268
0.0023336897
-0.0054430029
0.0022158452
-0.005007102
0.002276238
-0.0042179909
0.0023106135
-0.0033692006
0.0022784639
-0.0025594232
0.0021805375
-0.0017956622
-0.0019378398
0.0034829998
-0.0014268289
0.0031262454
-0.00090614036
0.00236308
0.00073664264
0.00068822517
0.0011010595
0.00054122423
-0.0020627505
0.001717777
0.0018220033
0.00020796724
0.0021200163
-0.0010523132
-0.00041395436
0.001591003
-6.618485e-05
0.0011688455
6.8187884e-05
0.00069354068
0.00051725695
0.00021415706
-7.2294741e-05
0.00080159677
0.0010412346
-0.00038256792
0.00010673465
0.00034873711
0.0015532552
0.00085668264
9.7562762e-05
-0.00073440785
-0.0017360191
-0.0025395965
-0.0031340369
-0.0032271574
-0.0027308639
-0.0019073774
-0.0010907368
-0.00037888576
0.00032435401
0.0020561711
0.0022201053
0.001949126
0.0002164286
0.00052021396
-0.00013792018
0.00082614544
-0.0005264554
0.0010676798
0.0020661458
-0.00034836894
0.0015208738
0.00030112942
0.0017288413
0.0010138326
0.0015248186
0.0012370337
0.00069354072
0.00044496246
0.00043058593
0.00041902867
-0.00071626102
0.00082196444
-0.00047322743
0.0028342112
-0.0012809563
0.0027273101
-0.0018706268
0.0026348617
-0.0025372976
0.0025981389
-0.0033325454
0.0025086101
-0.0042446284
0.0023324423
-0.0048720385
0.0022049165
-0.0053389535
0.002056263
-0.0052834207
0.0020756661
-0.0048065305
0.002127827
-0.004035205
0.0020910503
-0.0031817877
0.0019861374
-0.0023650236
0.0019105024
-0.0015861487
-0.00082786487
0.0028840353
-0.00051509842
0.002735203
-0.00026981612
0.0022189415
0.00038229373
0.00029968972
0.0008868013
0.00018087802
-0.0017353594
0.0013869909
0.0011879311
-6.5179699e-06
0.0018745054
-0.00086067296
-3.4718722e-05
0.0015595367
0.00013693589
0.001100097
0.00014573814
0.00054780072
4.8092649e-05
0.00039686915
0.00012093222
0.00030965331
0.00064117235
-0.00022214398
0.00010570326
0.00016794481
0.0020063467
0.0014463546
0.00076423582
6.0841954e-05
-0.00082393533
-0.0019121865
-0.0026671222
-0.0032826902
-0.0032077541
-0.0026787033
-0.0019441547
-0.0011956504
-0.00045452128
0.00028835669
0.0023689371
0.0024653871
0.0021842232
-0.0001599297
0.00054222386
-0.00042753159
0.0007272219
-0.00066656177
0.00084744019
0.001728135
-0.00034114411
0.0011567727
3.1158609e-05
0.0011502552
0.00086746213
0.001696473
0.0012458354
0.00054780075
0.00016902468
0.00017472515
0.00014972358
0.00040577158
-0.00030006849
0.00030006849
-0.00013212386
0.0019592667
4.7079777e-05
0.0019164605
-0.00047010528
0.0019131273
-0.0011488899
0.0019111296
-0.001850286
0.0019728099
-0.0027967443
0.001814737
-0.0037269236
0.0017873644
-0.004454487
0.0014660263
-0.004748717
0.0014287885
-0.004636543
0.0015033692
-0.0041820729
0.0015525995
-0.0034967547
0.0015331966
-0.0027288478
0.0015052378
-0.0019597597
0.0015243303
-0.0012359739
0.0003352253
0.0020337111
0.00043491916
0.0020304674
0.00040719845
0.0017770242
0.00011469233
6.066015e-05
0.00084454157
2.8988708e-06
-0.0012885046
0.00094736104
0.00087570041
-0.0001382492
0.0015109085
-0.00064344647
0.00038453775
0.0013119347
0.00034652381
0.00089931076
0.00021220252
0.00033559638
-4.2601135e-05
0.0002116256
0.00013212386
4.2601135e-05
-0.0002116256
0.00036134909
0.0022944924
0.0019635409
0.0014430228
0.00076224024
0.00012252382
-0.00098200783
-0.0019395596
-0.0029884605
-0.0033199281
-0.0031331735
-0.0026294733
-0.001963558
-0.00122361
-0.00043542936
0.00027493485
0.0024686306
0.0024376661
0.0021615623
-0.00036134909
0.00047604147
-0.00047604147
0.00053670176
-0.00053670176
0.00053960059
0.0012529389
-0.00030557778
0.0009385396
-6.2838905e-05
0.00080029068
0.00060949259
0.0016584589
0.0011115135
0.00033559639
0.0010476371
0.0012468549
0.00099973223
0.00096380898
0.0010407264
0.00040229793
0.0011216013
-0.00035935913
0.0011448921
-0.0010223671
0.0011133357
-0.0020953437
0.0011178264
-0.0030573869
0.00069980622
-0.0036882676
0.00057128924
-0.0038912179
0.00063379811
-0.003766972
0.00074729774
-0.0033767715
0.00082683458
-0.0027903934
0.00089739842
-0.0021210094
0.0010206873
-0.0014561173
0.0011336281
-0.00085869345
0.0013240488
0.0011445814
0.001241702
0.0011959638
0.0010272693
0.0011342927
0.00053960065
-0.0009270224
0.00062144522
0.00047676207
-0.00012673145
0.0010531615
-0.00044366891
0.00076564986
0.00089280861
0.00052914299
0.00058236978
0.00025692954
7.8665018e-05
0.0023716862
0.0022465876
0.0020045359
0.0015238997
0.00078553289
9.0968183e-05
-0.00097751782
-0.0023575808
-0.003116978
-0.0032574193
-0.0030196739
-0.0025499367
-0.0018929948
-0.0011003219
-0.00032248898
0.00019446833
0.0023862836
0.0022232334
0.0018999429
0.00080071553
-0.0001792701
0.00047676232
0.00035003108
0.00035704686
0.001421952
0.00083929958
7.8665002e-05
0.00026267004
0.002109016
0.0001844652
0.0020621224
0.00018617598
0.0018183609
0.00030195156
0.00122195
0.00041439759
0.00037113674
0.00036679896
-0.00027583097
0.00038485875
-0.001362378
3.7288386e-05
-0.0023948706
-0.00028037787
-0.0028366011
-0.00029008204
-0.0029673377
-0.00015939071
-0.0028602836
-2.1181341e-05
-0.0025287559
0.00015287041
-0.0020458659
0.00039116159
-0.0014914843
0.00063476089
-0.00095725026
0.00072515752
-0.00053068916
0.0020392787
0.00034700493
0.0018275743
0.00039565908
0.0014725021
0.00042744057
-0.00035003108
0.00017076131
0.0005697678
-0.00021272084
0.001047474
0.00037447758
0.00066877094
0.00017052784
0.00029728279
-0.00021861957
0.0023019489
0.0022934814
0.0022482987
0.0021203127
0.0016363476
0.00073793542
0.00010902749
-0.0013250897
-0.0026752482
-0.0031266827
-0.003126728
-0.0028814646
-0.0023758852
-0.0016547041
-0.0008567232
-0.00023209245
3.9078942e-05
0.0021745794
0.0018681615
0.0014749149
0.00017076136
-4.1959218e-05
0.0010432489
0.00046781086
-0.0002186196
-0.00050290513
0.0028048546
-0.00057699567
0.0028704774
-0.00067208112
0.0029203803
-0.00068133967
0.0028016537
-0.00048594981
0.0021222989
-0.00019957146
0.00093750673
-9.4857826e-05
0.00020388342
-0.00041565891
-0.00090943291
-0.0010311968
-0.0016440527
-0.0012010258
-0.0019256573
-0.001059158
-0.0020675701
-0.0008709075
-0.0020105573
-0.00061571459
-0.0017601709
-0.00027635713
-0.0013783474
8.8603671e-05
-0.00094532726
0.00032430598
-0.00055639855
0.00027172607
-0.0002326469
0.0026433809
-0.00046880086
0.0022869826
-0.00041882072
0.0017699674
-0.00029505245
-4.1959053e-05
0.0012094534
-0.0001662049
0.00067441916
-0.00020660908
0.00026303621
-0.00048165749
0.0021404758
0.0022278589
0.0021983962
0.0022390406
0.0023157039
0.0019227274
0.000842649
-0.00021177538
-0.0019406295
-0.0028450781
-0.0029848148
-0.0029384772
-0.0026262714
-0.0020365277
-0.0012897434
-0.00062102104
-0.00028467229
-0.00027460582
0.0018181819
0.0013511469
0.00091440127
0.00050821459
5.6427341e-05
-0.00048165752
-0.0013185369
0.0034590141
-0.0013272239
0.0035550841
-0.0013973847
0.0035957819
-0.001505689
0.0037447305
-0.0015936203
0.003909325
-0.0014622716
0.0033849983
-0.0011904997
0.002033146
-0.00086929718
0.00065751889
-0.0014364132
-0.0005042179
-0.0019303302
-0.00091474809
-0.001891255
-0.0010935595
-0.001686574
-0.001251903
-0.0013697774
-0.0012564939
-0.00094346177
-0.001093066
-0.00047290901
-0.0008168346
-0.00011828761
-0.00050273346
-8.249265e-05
-0.00020217933
-0.00027460559
0.0031391065
-0.0013209234
0.0025752503
-0.0012241027
0.0018929923
-0.00097859091
0.0012219047
-0.00071369036
0.00068268135
-0.00062625469
0.00022117361
-0.00070283262
0.0018205695
0.0021317898
0.0021576989
0.0020900925
0.0021511101
0.0024470538
0.0021944993
0.0011638493
-0.00077889408
-0.0024345479
-0.0028060028
-0.0027801331
-0.00262168
-0.0021999553
-0.0015659748
-0.00093512192
-0.00058522603
-0.00047678501
0.0012543269
0.00066888979
0.00024331403
-3.1008725e-05
-0.00040508089
-0.00070283265
-0.0021985775
0.0040191489
-0.0021830334
0.0043148253
-0.002185363
0.0043430638
-0.002161807
0.0042519005
-0.0021588118
0.0043099212
-0.0020737478
0.0045207992
-0.0019642078
0.0041587035
-0.0017236479
0.002887494
-0.0017396462
0.00096075098
-0.002253699
-0.00018084832
-0.0024477479
-0.0003582539
-0.002254418
-0.00052571439
-0.0019471244
-0.00067455527
-0.0014956802
-0.00070427511
-0.00096735868
-0.00059861616
-0.00054363027
-0.00039149162
-0.00042827025
-0.00015695551
-0.00047678483
0.0033950094
-0.0021406811
0.0026008218
-0.0019319312
0.0018053281
-0.0015620138
0.001111519
-0.0011425278
0.00055103108
-0.00095611252
0.00013460628
-0.00083744019
0.0011964316
0.0018361149
0.0021294615
0.002181256
0.0020930885
0.002236174
0.0025565926
0.0024350566
0.0011478482
-0.0012929479
-0.0026285961
-0.0026126716
-0.0024728385
-0.0021702351
-0.0016716335
-0.0011422462
-0.00081976174
-0.00063374035
0.00046014061
-0.00012660312
-0.00045049463
-0.00059149653
-0.00082150608
-0.00083744022
-0.0029636966
0.0041601299
-0.0030283633
0.0048644801
-0.0030485137
0.0051779767
-0.0030030814
0.0051843377
-0.0029461984
0.0050392849
-0.0026472431
0.0048834133
-0.0022942831
0.0048508719
-0.0021078398
0.0045428943
-0.0019678908
0.0031157393
-0.0023197192
0.0010267731
-0.0027926337
0.0001640396
-0.002608806
-3.8644656e-06
-0.0022803772
-0.00019246073
-0.0018473353
-0.00032289969
-0.0013316305
-0.00034000306
-0.00089585008
-0.00024639604
-0.00073130813
-8.8453354e-05
-0.00063374017
0.0032631675
-0.0028030257
0.0023425239
-0.0024691264
0.0015161773
-0.0019666717
0.00084480103
-0.0014362976
0.00036311864
-0.0011846252
4.193877e-05
-0.00087938003
0.00029947062
0.0011317659
0.0018159654
0.0021748944
0.0022381391
0.0023920425
0.0025891317
0.0027430336
0.0025750043
0.00079602025
-0.0017658607
-0.0024447664
-0.0022842416
-0.0020397958
-0.00165453
-0.0012358529
-0.00097770404
-0.00072219348
-0.00046050195
-0.00095294906
-0.0011218706
-0.0010731788
-0.0011426863
-0.00087938008
-0.0034108935
0.0037103654
-0.0035361281
0.0046678952
-0.0035935355
0.0054095013
-0.003598143
0.0057730365
-0.0034929448
0.0057310814
-0.0032410926
0.0056331314
-0.0027654906
0.0053546194
-0.0024141539
0.005157187
-0.0021254176
0.0047004235
-0.0021570546
0.0029530775
-0.0027359898
0.00097013146
-0.0028816385
0.00043687363
-0.0024981048
0.0002138637
-0.002053307
1.3511128e-05
-0.0015647695
-8.9760684e-05
-0.0011495477
-8.6305198e-05
-0.00095860718
-1.9096663e-05
-0.00072219332
0.0027088859
-0.003169387
0.0017780372
-0.0027309858
0.0010057621
-0.0021276325
0.00049891897
-0.0015720979
0.00014610424
-0.001288791
-5.0157012e-05
-0.00082922387
-0.00070200802
0.00017423653
0.0010743587
0.0018113575
0.0022800918
0.0024899898
0.0028676422
0.0029404668
0.0030317704
0.0025433692
0.00021708739
-0.0019115073
-0.0020612312
-0.0018394432
-0.0015512582
-0.0012393082
-0.0010449123
-0.00074128994
-0.0013913501
-0.0017252238
-0.0016287135
-0.0014259935
-0.0013389479
-0.00082922396
-0.0034592315
0.0027572244
-0.003583795
0.0037580324
-0.0036146996
0.0046890584
-0.0036741066
0.005485463
-0.0037201368
0.0060002269
-0.0034942515
0.0059842396
-0.0031030886
0.0059707298
-0.0027307048
0.0056711722
-0.0022955617
0.0053273337
-0.0019977329
0.0045411039
-0.0022428694
0.0024599582
-0.0028539258
0.00094241934
-0.0026279321
0.000566701
-0.0021542002
0.00031475658
-0.0016912107
0.00013995202
-0.0013053201
6.601173e-05
-0.0010925663
4.7654159e-05
-0.00074128983
0.0017669309
-0.0031582805
0.00096358849
-0.0026888119
0.00047756578
-0.002106279
0.000157673
-0.0015836665
-6.2947918e-05
-0.0012760004
-0.00012812695
-0.00070109749
-0.001692301
-0.00082657136
0.00014333191
0.0010149512
0.0017653266
0.0025059766
0.0028811523
0.0032400257
0.003375611
0.0033296011
0.0022982344
-0.00039396786
-0.0016855129
-0.0015874992
-0.0013764539
-0.0011653679
-0.0010265545
-0.00069363565
-0.0021946923
-0.0022112463
-0.001948606
-0.0016466144
-0.0014041274
-0.0007010976
-0.0031568231
0.0014645226
-0.0032944907
0.0024679201
-0.0034151725
0.0035585048
-0.0034923888
0.0045073396
-0.0034858123
0.0052511383
-0.0031780012
0.0056839778
-0.0030012961
0.0058824491
-0.0026561874
0.0058962145
-0.002244713
0.0056203256
-0.0018304746
0.0051600767
-0.0016810144
0.0039792489
-0.0022518817
0.0018579135
-0.0026121174
0.00092660376
-0.002184688
0.00059718774
-0.0017267426
0.00035028775
-0.0013678436
0.00020247532
-0.0011311653
0.00010461088
-0.00069363557
0.00071435867
-0.0029090507
0.0002836026
-0.0024948484
1.2900961e-05
-0.0019615065
-0.00015898354
-0.0014876308
-0.00024994145
-0.0011541863
-0.00018649154
-0.00051460624
-0.0024424649
-0.0018299687
-0.00094725316
6.6115557e-05
0.0010215277
0.0020731383
0.0026826828
0.003226262
0.0036515013
0.003789851
0.0034790624
0.0017273672
-0.00075420382
-0.0012580841
-0.0011295547
-0.0010175557
-0.00092868993
-0.00058902468
-0.0026254485
-0.0024819478
-0.0021204902
-0.0017375723
-0.0013406779
-0.00051460629
-0.0028699076
0.00042744297
-0.0029978225
0.0011678544
-0.0030962839
0.0021490316
-0.0031531091
0.0032192251
-0.0029510937
0.0039726215
-0.0026158037
0.0046889424
-0.0025717555
0.0052544394
-0.0022697065
0.0054959698
-0.0018763542
0.0055278567
-0.0015023707
0.0052922225
-0.0012179625
0.0046970247
-0.0013778917
0.0031052578
-0.0021523202
0.0013981148
-0.0021063059
0.00084822019
-0.0016720226
0.00054246666
-0.0013373177
0.00031976151
-0.0010776671
0.00014897721
-0.00058902462
-2.0470703e-05
-0.0026049774
-0.00028959209
-0.0021923548
-0.00041157948
-0.0017089099
-0.00044992759
-0.0012876448
-0.00040679669
-0.00093388159
-0.00022414685
-0.00029045957
-0.0028903787
-0.00257038
-0.0019284301
-0.001004078
0.00026813159
0.0013568187
0.0021171879
0.0029847331
0.0036196149
0.0040254855
0.0040742601
0.0033191334
0.00095293809
-0.00070819054
-0.00082380198
-0.00079485079
-0.00075790551
-0.00044004739
-0.00289457
-0.0026039347
-0.0021588378
-0.0016944416
-0.0011580284
-0.00029045943
-0.0026548594
-0.00023551953
-0.0028220371
0.00025165741
-0.0026716973
0.00074326838
-0.0022685524
0.0012644755
-0.0017481739
0.0020163057
-0.0015951766
0.0029519954
-0.0016156506
0.0037328389
-0.0013749759
0.0043597094
-0.0011505798
0.0047701951
-0.00090302114
0.0049285069
-0.00065100867
0.0047252686
-0.00059278267
0.0039119149
-0.0012059675
0.0021589038
-0.0018219891
0.0011137968
-0.0015401708
0.0007163677
-0.0012125167
0.00041766565
-0.00093874494
0.00018083953
-0.0004400473
-0.00060738036
-0.0022871889
-0.0007699532
-0.0018339799
-0.0007975608
-0.001361276
-0.0007122567
-0.000982185
-0.00053140572
-0.00062662324
-0.00023995992
-5.0500063e-05
-0.0032622402
-0.0030575572
-0.0024200406
-0.0015252846
-0.00048369828
0.00042112988
0.0013363457
0.0023578634
0.0032091291
0.0038671732
0.004277498
0.0041324863
0.0027059482
0.00033691555
-0.00042637328
-0.00049614854
-0.00052107907
-0.00025920769
-0.0030571426
-0.0026315412
-0.0020735331
-0.0015135909
-0.00086658305
-5.0499743e-05
-0.0019835883
-0.0012786523
-0.0017817458
-0.0012758114
-0.0013657726
-0.0010542666
-0.00093922039
-0.00058606276
-0.000418324
-6.5374227e-05
-0.00017721426
0.00059834331
-0.00028476912
0.0016211142
-0.00022599374
0.0025838567
-0.00019381196
0.0034029405
-9.3007519e-05
0.00396018
5.3577012e-05
0.0042239202
0.00016512849
0.0039673567
-0.00015208513
0.0028580318
-0.0011043515
0.0014412657
-0.0012760386
0.00084966455
-0.00098989344
0.00049374492
-0.00072574394
0.00020466523
-0.00025920751
-0.0012327746
-0.0018243671
-0.0012123112
-0.0014192282
-0.0011115924
-0.00096193936
-0.00092536185
-0.00058822876
-0.0006321757
-0.00023440781
-0.00028441476
0.00023391394
-0.0032163634
-0.0030603989
-0.0026415849
-0.0019934875
-0.0010043865
-0.0002425877
0.00031357517
0.001395121
0.0023900445
0.0033099324
0.0040137567
0.0043890491
0.0038152725
0.0017536812
0.0001652279
-0.00014022817
-0.00023199873
-5.4542311e-05
-0.0030366788
-0.0025308212
-0.0018873016
-0.0012204046
-0.00051882232
0.00023391435
0.00014960791
-0.0033659714
0.00089708662
-0.0039574851
0.0014599479
-0.0041015314
0.0017134578
-0.0037069444
0.0014079247
-0.0024123123
0.00077872842
-0.0010213184
0.00066286916
-0.00034929589
0.00073731922
0.00065780065
0.00069894545
0.0016910981
0.00074123408
0.0025686972
0.00082591583
0.0031878397
0.00091253568
0.0034765124
0.00078017766
0.0030350939
-5.8953302e-06
0.0017595758
-0.0007635487
0.00092877614
-0.00068109408
0.00054086607
-0.00043719237
0.00020519424
-5.4541993e-05
-0.002577746
-0.00045893242
-0.0018652419
-0.00066557789
-0.0014274
-0.00045989987
-0.0010681631
-0.00015224035
-0.00067188227
0.00015306006
-0.00025510111
0.00048901448
-0.0024281387
-0.0024688857
-0.0024975383
-0.0023880741
-0.0022990192
-0.0016335829
-0.00035844806
0.00038802424
0.0013567464
0.002432332
0.0033946128
0.0041003757
0.0042566909
0.0030291995
0.00099602774
0.0002476828
0.00010367398
0.00015065204
-0.0023241749
-0.0020929785
-0.0015280636
-0.00082412282
-0.00010204073
0.00048901487
0.0028625668
-0.0052907047
0.0034025536
-0.0058714379
0.0035946032
-0.0060921407
0.0035369655
-0.0059250409
0.0032690042
-0.0055680268
0.0028146549
-0.0044482418
0.0023041887
-0.0026626396
0.0018317581
-0.0014437354
0.0016794489
-0.00032270342
0.0015888007
0.00084353041
0.0015877918
0.0018068201
0.0016276641
0.0024727108
0.0015857226
0.0026709679
0.0010105133
0.0020186859
-4.0140804e-05
0.0010361684
-0.00031801146
0.0005656945
-0.00011777156
0.00022144631
0.00015065249
-0.0042782568
0.0019540824
-0.0030808159
0.00098783866
-0.0019198371
0.00039177546
-0.0011790189
0.00035489777
-0.00068763525
0.00058559532
-0.00024192343
0.00073093799
-0.0014156908
-0.0018881522
-0.0022768359
-0.0025551758