/*--------------------------------*- C++ -*----------------------------------*\
| =========                 |                                                 |
| \\      /  F ield         | OpenFOAM: The Open Source CFD Toolbox           |
|  \\    /   O peration     | Version:  2112                                  |
|   \\  /    A nd           | Website:  www.openfoam.com                      |
|    \\/     M anipulation  |                                                 |
\*---------------------------------------------------------------------------*/
FoamFile
{
    version     2.0;
    format      ascii;
    arch        "LSB;label=32;scalar=64";
    class       surfaceScalarField;
    location    "0.335";
    object      phi;
}
// * * * * * * * * * * * * * * * * * * * * * * * * * * * * * * * * * * * * * //

dimensions      [0 3 -1 0 0 0 0];

oriented        oriented;

internalField   nonuniform List<scalar> 
23855
(
-0.00010019509
-7.060581e-06
-9.3134509e-05
-0.0003270577
0.00031999712
-9.3134509e-05
-4.7584747e-05
-0.00027947296
-4.9736368e-05
-8.9179841e-06
-8.4216525e-05
0.00042229513
-0.00046987987
-0.00028839094
-0.00058001949
-8.4216525e-05
-0.00015772436
-6.5721441e-05
-0.00040415843
-2.4725026e-05
-0.00026366591
-2.7789665e-06
-8.1437558e-05
-0.00057686451
0.00041914015
0.00047076816
-0.0005364896
-0.00042888346
-0.00026644488
-8.1437558e-05
-0.00010609635
-0.00024891115
-0.00050400959
-3.2480009e-05
-2.8395788e-05
-0.00040048767
-9.286084e-06
-0.0002571588
1.8492371e-06
-8.3286796e-05
-0.00048729865
0.0003812023
-0.00063561419
0.00038670304
-0.00053240538
0.00063309306
-0.00066557306
-0.00040977375
-0.00025530956
-8.3286796e-05
0.00014579441
-0.0002544119
-0.00038487451
-2.5393282e-05
-0.0005070121
-0.00060208373
-6.3489333e-05
-9.8032074e-06
-0.00039997055
1.8212821e-06
-0.00025713084
5.4174626e-06
-8.8704258e-05
0.00056641332
-0.00042061891
0.00031200142
-0.00073990898
0.00035503448
-0.00062747701
-0.0005168153
-0.00074173994
0.00067825061
-0.00039814927
-0.00025171338
-8.8704258e-05
-0.00071295505
0.00029233615
-0.00042790756
-0.00053051385
-1.9252651e-05
-0.00060822436
-2.4567445e-06
-0.00051435856
-0.00071598957
-2.5750378e-05
-3.4704443e-05
6.5187126e-06
-0.00040466798
1.0526928e-05
-0.00026224031
7.8575928e-06
-9.6561851e-05
0.00074968101
-0.00045734486
0.00032177345
-0.00088603959
0.00035552574
-0.00073524222
-0.00061068111
-0.00050783985
0.00096014671
-0.00098589709
0.0007229324
-0.00075763684
-0.00039414105
-0.00025438271
-9.6561851e-05
0.00026558754
-0.00056426615
-0.00065792544
-2.2451391e-05
-0.00071279083
1.1192447e-05
-0.00062187356
1.9612028e-05
-0.00052745187
0.00020250987
-0.0007922282
-0.00019366889
2.0055149e-05
-0.0004141962
1.7052117e-05
-0.00027143483
9.1925888e-06
-0.00010575444
0.00093742804
-0.0006718405
0.00037316189
-0.0010409848
0.0003830594
-0.00081467959
-0.00070159838
-0.00060226153
-0.00050739672
0.0011871781
-0.00098466823
0.00063072391
-0.0008243928
-0.00039714408
-0.00026224224
-0.00010575444
0.0005153376
-0.00066782295
-0.00075897766
-0.00082428061
9.6010137e-06
3.6094425e-05
-0.0007376928
4.2565812e-05
-0.00064482734
3.8012171e-05
-0.0005454089
-0.0012638338
0.00027916553
-0.00063310985
-0.00087579004
5.1397242e-05
3.0281637e-05
-0.00042742572
2.1274934e-05
-0.00028351718
9.507218e-06
-0.00011526166
0.001107834
-0.00059249637
0.00044001103
-0.0011703865
0.0004114088
-0.00078818618
-0.00086618903
-0.00069512699
-0.00060681517
-0.00051512726
0.0012144116
-0.00093524604
-0.00096051848
0.00032740863
-0.00090912124
-0.00040615079
-0.00027400996
-0.00011526166
-0.0011119896
0.00051949323
-0.00073037542
-0.00084790559
-0.00086763725
7.9451073e-05
-0.00095891945
9.273042e-05
7.6166812e-05
-0.0007712938
6.5298612e-05
-0.00067211378
5.0805469e-05
-0.00056593273
0.00010242196
-0.0012707671
0.0003355211
-0.0009433585
-0.0010764537
0.0001673325
3.6647166e-05
-0.00044279795
2.3040029e-05
-0.00029704999
8.8651578e-06
-0.00012412682
0.0011741073
-0.00065461409
0.0004437319
-0.0012751768
0.00042727125
-0.00079147044
-0.00087946837
-0.00098372332
-0.00070599519
-0.00062130831
-0.00052928556
0.0010410555
-0.00093863356
0.0013053701
-0.00096984899
-0.0014052484
0.00046188987
-0.0012379159
-0.00041975792
-0.00028818483
-0.00012412682
0.00038644143
-0.00083144494
-0.00091638737
-0.00090963319
0.00011816275
-0.0010085716
0.0001291032
-0.0011026791
0.00011895575
0.00010047808
-0.00080647327
7.9008996e-05
-0.00070031731
5.7762944e-05
-0.0005870485
0.00036673653
-0.0014484405
0.00047859147
-0.00098655059
-0.0011747135
-6.32024e-05
3.903683e-05
-0.00045879475
2.2385986e-05
-0.00031057081
7.3790431e-06
-0.00013150586
0.0012776756
-0.00089123418
0.00044623067
-0.00136948
0.00045309262
-0.00080915511
-0.00089040882
-0.00097357587
-0.0010557577
-0.00072746427
-0.00064255436
-0.00054801167
0.0013385528
-0.00097181624
0.0014468267
-0.00096823522
-0.0016215278
0.00063497719
0.00095166654
-0.0010148689
-0.00043640877
-0.00030319177
-0.00013150586
0.00044731859
-0.00092324932
-0.00093335361
-0.00095101129
0.00014185618
-0.0010554108
0.00016500199
-0.0011488029
0.00017522703
-0.0012128116
0.0001570539
0.0001136139
-0.00084107817
8.49236e-05
-0.00072747796
5.9136796e-05
-0.00060714847
0.00047501045
-0.0015328927
0.00056465749
-0.00066986124
-0.00089791552
-0.0012096599
0.00019479092
3.754899e-05
-0.00047395776
1.949424e-05
-0.00032268601
5.2113378e-06
-0.0001367172
0.001437075
-0.00098975639
0.00051382566
-0.0014514939
0.00051814024
-0.0008373974
-0.00091355463
-0.00098380091
-0.0010375846
-0.001052606
-0.00075615457
-0.00066834117
-0.00056959948
0.0014821333
-0.0010071228
0.0014817599
-0.00091710245
-0.001193543
0.00052368173
-0.0016435109
0.00074559533
-0.00099875205
-0.00045446352
-0.00031747467
-0.0001367172
0.00049237688
-0.00093766819
-0.00087314947
-0.00099143966
0.00015404226
-0.0011015481
0.00018799348
-0.001196744
0.0002129431
-0.0012640025
0.0002264179
-0.0012986677
0.00024606176
0.00011779325
-0.00087394782
8.383982e-05
-0.00075218099
5.5215547e-05
-0.00062481503
0.00047463712
-0.0014565409
0.00053943846
-0.0011198291
-0.00071094557
-0.0013044751
0.00030572307
3.2419469e-05
-0.00048688299
1.4675666e-05
-0.00033215034
2.5323241e-06
-0.00013924952
0.0016626143
-0.0011702375
0.00072494613
-0.0014159738
0.00054282432
-0.0008736464
-0.00094750585
-0.0010087505
-0.0010510594
-0.0010722498
-0.0010584134
-0.000790108
-0.00069696544
-0.00059239556
0.0014831813
-0.0010085442
0.0014185497
-0.00087911121
-0.0013710739
0.00025124474
0.00057295047
-0.001283896
-0.0010653508
-0.00047220732
-0.00032961802
-0.00013924952
0.00031294383
-0.00069102766
-0.00082062904
-0.00102701
0.00015336358
-0.0011398522
0.00019234632
-0.0012330557
0.00022430519
-0.0012989322
0.00024787276
-0.0013353511
0.00026310129
-0.0013392963
0.00028088297
0.0001127666
-0.0009028746
7.6194844e-05
-0.00077316028
4.6367085e-05
-0.00063876264
0.00041000551
-0.0013076111
0.00042849986
0.0013401593
-0.0010889145
-0.0007346606
5.6263222e-05
-0.0013432743
0.00027792351
2.4046879e-05
-0.0004962542
8.2974978e-06
-0.00033791551
-4.2466742e-07
-0.00013882485
0.0013762505
-0.0010633066
-0.0012734192
0.00058239151
-0.0012766917
0.00045606267
-0.00091424339
-0.00098648859
-0.0010407094
-0.001074627
-0.0010874784
-0.001076195
-0.0010623913
-0.00082667976
-0.0007267932
-0.00061471576
0.0013786166
-0.00096861106
0.0013306528
-0.00090215297
-0.0013189774
0.00023006285
-0.0010469107
0.00031225011
-0.00099064749
-0.0010410539
-0.0004879567
-0.00033834018
-0.00013882485
0.00010283129
0.00031530994
-0.0006943002
-0.00082688638
-0.0010469278
0.00013268443
-0.0011556096
0.00016912106
-0.0012437197
0.00020301034
-0.0013081124
0.0002334854
-0.0013452096
0.00025773127
-0.0013510548
0.0002748598
-0.00134256
0.00028016865
9.5708825e-05
-0.00092238858
6.1156956e-05
-0.00078795016
3.3104811e-05
-0.00064782058
0.00036204177
-0.0012136622
0.00031150919
0.0012222686
-0.00099220573
-0.00090141205
0.00023162109
-0.0013091673
0.00026811347
1.3007394e-05
-0.0005009641
8.0724277e-07
-0.00033914742
-3.6685558e-06
-0.0001351563
0.0010546997
-0.00095186839
0.001270072
-0.00095476203
0.00036039948
-0.0011936129
0.00036672656
-0.00095121899
-0.0010229252
-0.0010745987
-0.001105102
-0.0011117242
-0.0010933236
-0.0010677002
-0.0010289987
-0.00086123163
-0.00075484534
-0.00063481318
0.0013225403
-0.00096049856
0.0012539184
-0.0009424092
-0.0012436984
0.00025149267
-0.0011578651
0.00025645308
-0.00092624404
-0.00097558493
-0.00050015685
-0.00034281598
-0.0001351563
0.00031820357
0.0003677783
-0.00083321346
-0.00079571828
-0.001038946
8.7727026e-05
-0.0011395848
0.00011665959
-0.0012237729
0.00014917422
-0.0012886449
0.00018354289
-0.0013289093
0.00021718504
-0.0013408601
0.00024753652
-0.0013321406
0.00026444044
-0.0012949555
0.00026595677
6.1459433e-05
-0.00092269106
3.6991253e-05
-0.0007918366
1.5354986e-05
-0.00065016817
0.00029341983
-0.0011485593
0.00020615006
0.0011643529
-0.00091286025
-0.00089210619
0.00023810889
-0.0012318376
0.00025625264
1.792553e-07
-0.00050033611
-7.3434252e-06
-0.00033547255
-6.7604625e-06
-0.00012839584
0.0011821458
-0.00086394226
0.001268862
-0.00090108373
0.00034893237
-0.0011090249
0.00031330666
-0.00097748658
-0.0010518578
-0.0011071133
-0.0011394707
-0.0011453664
-0.001123675
-0.0010846041
-0.001030515
-0.0009658808
-0.00088569981
-0.00077648161
-0.00064998891
0.0013774418
-0.0010840219
0.0011115686
-0.00090541852
-0.0011506589
0.00023779862
-0.001094285
0.00020217884
-0.00085617614
-0.00089440623
-0.00050767953
-0.00034223302
-0.00012839584
0.00040491978
0.00047635804
-0.00076009257
-0.0007072642
-0.0010021449
2.4658279e-05
-0.0010974058
4.5548026e-05
-0.0011825178
7.540449e-05
-0.0012518729
0.00011240218
-0.0012970061
0.00015163975
-0.0013136405
0.00018996543
-0.0013065187
0.00022191461
-0.0012688575
0.00023834249
-0.0012048396
0.00023895876
1.1442947e-05
-0.00089714275
1.6632134e-06
-0.00077814482
-7.12833e-06
-0.00064286058
2.7546641e-05
-0.0010238348
0.0001184163
0.0010623904
-0.00082459179
-0.00082165598
0.00020621427
-0.0011219993
0.00022759307
-1.3842403e-05
-0.00049383713
-1.5232317e-05
-0.0003270007
-9.452024e-06
-0.00011894381
0.0011015448
-0.00069662504
0.0012465301
-0.00077017202
0.00034145224
-0.00095122893
0.00024396473
-0.00099070191
-0.0010727475
-0.0011369698
-0.0011764684
-0.0011846039
-0.0011620007
-0.0011165533
-0.0010469429
-0.00096649707
-0.00088304054
-0.00089547954
-0.00078527315
-0.00065670299
0.00092391922
-0.00089637258
0.00092024423
-0.00080182793
-0.0010283841
0.0002037923
-0.00097392507
0.00015226909
-0.0007677108
-0.00080079102
-0.00050906945
-0.00033645272
-0.00011894381
0.00054990502
-0.0010362821
0.00026611011
-0.00060977669
-0.00063121588
-0.00094618403
-4.4517885e-05
-0.0010404852
-3.2262342e-05
-0.0011293353
-7.6344462e-06
-0.0012046003
2.8131972e-05
-0.0012562448
7.1640877e-05
-0.0012783032
0.00011630251
-0.0012743648
0.00015781152
-0.0012352987
0.00018835583
-0.0011689261
0.00020242906
-0.0010846032
0.00020156269
-4.5800711e-05
-0.00084967883
-3.9933175e-05
-0.00074533998
-3.3291774e-05
-0.00062341121
-0.00011236291
2.3871654e-05
-0.00088451787
8.2689939e-05
0.00093222711
-0.00072843481
-0.00073224878
0.00016451631
-0.00098899494
0.00018820393
-2.8394039e-05
-0.00048067541
-2.2208937e-05
-0.00031424379
-1.1379059e-05
-0.00010756475
0.00081481952
-0.0002649145
-0.00061988656
0.00088599666
0.00020504284
-0.00077020482
0.00013898895
-0.00099198474
-0.0010850031
-0.0011615977
-0.0012122348
-0.0012281129
-0.0012066624
-0.0011580623
-0.0010774872
-0.0009805703
-0.00088217417
-0.00078743226
-0.000889612
-0.00077863175
-0.00065180525
0.00065266348
-0.0007650264
0.00076723867
-0.00074336702
0.00077721811
-0.00069452817
-0.00089010128
0.00016166647
-0.00084310023
0.00011085146
-0.00067858393
-0.00070189735
-0.00050288435
-0.00032562285
-0.00010756475
-0.00086573672
0.00060082222
3.2776924e-05
2.0259939e-05
-0.00056516199
-0.00058014321
-0.00088190159
-0.00011008315
-0.00097733217
-0.00010767091
-0.0010698673
-9.1730372e-05
-0.0011504733
-6.1761542e-05
-0.0012085574
-1.955549e-05
-0.0012360609
2.9398572e-05
-0.0012378146
7.9752334e-05
-0.0011994488
0.00012196159
-0.0011297742
0.00014920388
-0.0010431243
0.00016095015
-0.00094649355
0.0001590613
-9.9854722e-05
-0.00078975728
-8.0565889e-05
-0.00069806586
-5.9424008e-05
-0.00059238124
2.2122732e-06
3.3851092e-05
-0.00075455162
6.0023447e-05
0.00079981822
-0.00063815175
-0.00064370016
0.00012123429
-0.00084674278
0.00014484543
-4.1985589e-05
-0.00046089876
-2.7628602e-05
-0.00029799424
-1.2269411e-05
-9.5295342e-05
3.5660239e-05
-0.0006051702
0.00063794712
-0.00061838538
0.00063864532
-0.00064528137
6.5138164e-05
-0.00098175631
-0.0010874153
-0.0011775382
-0.0012422036
-0.0012703189
-0.0012556164
-0.0012084161
-0.0011196965
-0.0010078126
-0.00089392044
-0.00078554341
-0.00068768148
-0.00087032317
-0.00075748987
-0.00063436683
0.00062261492
-0.00062040265
0.00064048612
-0.00060663502
0.0006382633
-0.00057823986
-0.00075594689
0.00011779515
-0.00071902512
7.5324957e-05
-0.00059779082
-0.00061110147
-0.00048852736
-0.00031026365
-9.5295342e-05
-0.00060962113
1.7444722e-05
1.9561737e-05
2.9024193e-05
0.00056743126
-0.00050229309
-0.00081876421
-0.0001629921
-0.00091625092
-0.0001711644
-0.0010115048
-0.00016603341
-0.0010958056
-0.00014639801
-0.001159011
-0.00011130795
-0.0011908025
-6.4813943e-05
-0.0011975048
-1.09113e-05
-0.0011608798
4.1183385e-05
-0.0010894492
8.1636623e-05
-0.0010009535
0.00010703308
-0.00090359758
0.00011805417
-0.00080411374
0.00011643226
-0.00014247637
-0.0007278468
-0.00011289863
-0.00064459124
-8.0324216e-05
-0.00055404262
2.008347e-05
3.162828e-05
-0.0006200723
4.1832446e-05
0.0006784428
-0.00056064765
-0.00054474734
8.0651978e-05
-0.00071348385
0.00010238238
-5.2367879e-05
-0.00043615948
-3.07341e-05
-0.00027952955
-1.1992614e-05
-8.3302728e-05
0.000496396
-0.00047895128
-0.00048361375
0.00050317549
0.00051863836
-0.00048961417
1.2640418e-05
1.634527e-05
-0.00096124058
-0.001079243
-0.0011826692
-0.001261839
-0.001305409
-0.0013021104
-0.0012623187
-0.0011717911
-0.0010482658
-0.00091931689
-0.00079656451
-0.00068605957
-0.00059705158
-0.00084074544
-0.00072491545
-0.00060641049
0.00049344315
-0.00047335968
0.00049180219
-0.00046017391
0.00048324242
-0.00044140998
-0.00063746844
7.682079e-05
-0.00059231511
4.756777e-05
-0.00051166314
-0.00053508606
-0.00046689358
-0.00029152217
-8.3302728e-05
1.2782247e-05
1.4491869e-05
1.3561321e-05
-0.00036162672
0.00035836492
-0.00034201965
-0.00076343567
-0.00019780491
-0.00086288643
-0.00021635659
-0.00095993618
-0.00022273302
-0.001045586
-0.00021625304
-0.0011118563
-0.00019355266
-0.0011470829
-0.00015502755
-0.0011574086
-0.00010491011
-0.0011228897
-4.8901467e-05
-0.0010505761
2.3102373e-06
-0.00096092718
4.1610291e-05
-0.00086339033
6.6825823e-05
-0.00076484425
7.8784679e-05
-0.00067489015
7.7838565e-05
-0.00016847739
-0.00067226804
-0.00013154419
-0.00059337126
-9.2089023e-05
-0.00051432147
1.8442514e-05
2.3068509e-05
-0.00046760152
2.6191546e-05
0.00055995062
-0.00048312983
-0.00042003375
4.8287484e-05
-0.00059978204
6.4695972e-05
-5.7361815e-05
-0.00040953177
-3.0763586e-05
-0.00026075858
-1.0404893e-05
-7.2897835e-05
-0.00032637531
0.00033915756
0.00033304082
-0.00031854895
0.00034720485
-0.00033364352
-3.2618024e-06
5.1851993e-06
-0.00093191307
-0.0010606913
-0.0011762928
-0.001268319
-0.0013281093
-0.0013406355
-0.0013124361
-0.0012277998
-0.0010994775
-0.00095861695
-0.00082178004
-0.00069801843
-0.00059610547
-0.00052194347
-0.00080381223
-0.00068546029
-0.00057168329
0.0003266875
-0.00030824498
0.0003179406
-0.00029487209
0.00030557393
-0.00027938238
-0.00052703648
4.3906645e-05
-0.00044697831
2.6944561e-05
-0.00039869083
-0.0004623405
-0.00044029535
-0.00027116348
-7.2897835e-05
6.6655078e-06
5.5140355e-06
8.1385471e-06
0.00014065972
-0.00014392152
0.00014392152
-0.00013873632
-0.00072054932
-0.00021136375
-0.00082093314
-0.0002397582
-0.00091867674
-0.00025761603
-0.0010047981
-0.00026352096
-0.0010714206
-0.00025668875
-0.0011097929
-0.00023084269
-0.0011214947
-0.00019094145
-0.001091304
-0.00013649575
-0.001019502
-7.997554e-05
-0.00092864473
-2.9972216e-05
-0.00083039394
8.6138976e-06
-0.00073226995
3.4251528e-05
-0.0006427575
4.6652025e-05
-0.00056781534
4.5871866e-05
-0.00017532499
-0.00062848724
-0.00013453778
-0.0005509225
-9.2746638e-05
-0.00047893665
9.6956162e-06
1.0701837e-05
-0.00029022703
1.0844651e-05
0.00042381168
-0.00037990503
-0.00026328247
2.5120852e-05
-0.00049702676
3.468626e-05
-5.5617243e-05
-0.00038467811
-2.7290171e-05
-0.00024387331
-7.5628274e-06
-6.5335008e-05
0.00013322229
-0.00012655678
0.00013873632
-0.00013322229
0.00012655678
-0.00011841823
-0.00089587431
-0.0010322969
-0.0011584349
-0.0012624141
-0.0013349415
-0.0013664816
-0.0013523374
-0.0012822455
-0.0011559977
-0.0010086203
-0.00086036615
-0.00072365606
-0.00060850597
-0.00052116331
-0.0004511549
-0.00076302502
-0.00064366914
-0.00053455389
0.00011841823
-0.00010872262
0.00010872262
-9.8020779e-05
9.8020779e-05
-8.7176128e-05
-0.00040064216
2.0737122e-05
-0.00027326712
9.9846494e-06
-0.00024814627
-0.0003659559
-0.00041196828
-0.00025143613
-6.5335008e-05
-0.00069282966
-0.00020304465
-0.00079355097
-0.00023874591
-0.00089062105
-0.00026781389
-0.00097607083
-0.00028634326
-0.0010423394
-0.00029260217
-0.0010822565
-0.00028422511
-0.0010947725
-0.00025756492
-0.0010719084
-0.00021033706
-0.0010018276
-0.00015417016
-0.00090972665
-9.8893618e-05
-0.00080952506
-5.0841093e-05
-0.00071024757
-1.3408489e-05
-0.00061992405
1.1418083e-05
-0.00054379485
2.2631539e-05
-0.00047268786
2.1532963e-05
-0.00016355362
-0.0005994714
-0.00012229241
-0.00052137673
-8.2216297e-05
-0.00045233759
-8.7176128e-05
0.00025626055
-0.00023552342
-7.7191479e-05
8.1142758e-06
-0.00037999509
1.4039193e-05
-4.6973037e-05
-0.00036499524
-2.042699e-05
-0.00023100914
-3.6929556e-06
-6.1642052e-05
-0.00085638328
-0.00099659563
-0.001129367
-0.0012438847
-0.0013286826
-0.0013748587
-0.0013789976
-0.0013294734
-0.0012121646
-0.0010638968
-0.00090841868
-0.00076108866
-0.00063333254
-0.00053237677
-0.00045005632
-0.00035846213
-0.00072176381
-0.00060359303
-0.00049931063
-0.00024086426
5.3408382e-06
-7.7191479e-05
-6.9077203e-05
-0.00022682507
-0.00038542223
-0.0002347021
-6.1642052e-05
-0.00067935803
-0.00017702525
-0.00078094379
-0.00021565183
-0.00087742853
-0.00025193844
-0.00096114754
-0.00028273718
-0.0010265527
-0.00030212993
-0.001067467
-0.00030739171
-0.0010796898
-0.00029930775
-0.001064236
-0.0002652374
-0.00099844009
-0.00021372455
-0.00090602674
-0.00015787007
-0.00080339982
-0.00010501886
-0.00070173648
-5.9352179e-05
-0.00060888038
-2.4452158e-05
-0.00052957747
-2.7992954e-06
-0.00045595862
5.9023013e-06
-0.0003640291
5.5669724e-06
-0.0001373203
-0.00058444351
-9.8209861e-05
-0.00050538317
-6.244725e-05
-0.00043686338
6.9077203e-05
-6.3736364e-05
-0.00022871811
1.8930399e-06
-3.2515103e-05
-0.00035290713
-1.0786808e-05
-0.00022391529
8.5429674e-07
-6.2496349e-05
-0.00081667833
-0.00095796904
-0.0010930804
-0.001213086
-0.0013092899
-0.0013695969
-0.0013870815
-0.0013635437
-0.0012636775
-0.0011197513
-0.0009612699
-0.00080675534
-0.00066823256
-0.00055402963
-0.00045875792
-0.0003581268
-0.00022315114
-0.00068265337
-0.00056783042
-0.00046937848
-6.3736364e-05
-6.1843324e-05
-0.00036369394
-0.00022306099
-6.2496349e-05
-0.00067924485
-0.00013743349
-0.0007821335
-0.00017583554
-0.00087928186
-0.0002137985
-0.00096151287
-0.0002515731
-0.0010234621
-0.00028582773
-0.0010628859
-0.00030671102
-0.0010756305
-0.000311451
-0.001066472
-0.00029707173
-0.0010086794
-0.0002549981
-0.00091776482
-0.00020198647
-0.00081259022
-0.00014867968
-0.00070774978
-9.9005558e-05
-0.00061084172
-5.7390847e-05
-0.00052654981
-2.7479815e-05
-0.00044828014
-1.0477778e-05
-0.00035433261
-3.7941846e-06
-0.00022115922
-1.9919113e-06
-9.9523197e-05
-0.00058313017
-6.4831032e-05
-0.00050299939
-3.5954676e-05
-0.00043342381
-6.1843324e-05
-1.3936924e-05
-0.00034975701
5.9351105e-07
-0.00022365451
5.7651095e-06
-6.8261459e-05
-0.00077876804
-0.00091956699
-0.0010551174
-0.0011753114
-0.0012750352
-0.0013487136
-0.0013823415
-0.001377923
-0.0013057511
-0.0011727629
-0.0010145767
-0.00085642946
-0.00070984727
-0.00058394066
-0.00047575996
-0.00036481039
-0.00022495341
-6.3835236e-05
-0.0006479612
-0.00053895406
-0.00044736073
-0.0003491635
-0.0002178894
-6.8261459e-05
-0.00069303065
-8.573739e-05
-0.00079681669
-0.00012275029
-0.00089555448
-0.00015956292
-0.00097901589
-0.00019629548
-0.0010401407
-0.00023489459
-0.0010753204
-0.00027339322
-0.0010837008
-0.00029864076
-0.0010741328
-0.00030379015
-0.001028812
-0.00027693908
-0.00094387055
-0.00022889237
-0.00083670317
-0.00017787351
-0.00072797965
-0.00012844981
-0.000625765
-8.4082278e-05
-0.00053492923
-4.9011432e-05
-0.00045003105
-2.5728908e-05
-0.00035181509
-1.2995303e-05
-0.00021913432
-5.819085e-06
-6.3835235e-05
-5.1610694e-05
-0.00059635051
-2.4319535e-05
-0.00051463453
-5.2073551e-06
-0.00044215338
6.8055863e-06
-0.00035596909
1.2504227e-05
-0.00023039362
1.00681e-05
-7.832956e-05
-0.00074464135
-0.00088255408
-0.0010183048
-0.0011385788
-0.0012364361
-0.001310215
-0.001357094
-0.0013727736
-0.0013326022
-0.0012208096
-0.0010655955
-0.00090585317
-0.0007542148
-0.00061901151
-0.00049904248
-0.00037754399
-0.00023212963
-6.965432e-05
-0.00062067004
-0.00051984188
-0.00043534779
-0.00034346486
-0.00022032552
-7.832956e-05
-0.00072209984
-2.2541507e-05
-0.00082608178
-5.6472302e-05
-0.00092542215
-9.2882629e-05
-0.0010091772
-0.00012940156
-0.0010708012
-0.00016563498
-0.0011045298
-0.00020568515
-0.001110064
-0.00024703001
-0.0010949268
-0.00027784676
-0.001054478
-0.00027812416
-0.00097877629
-0.00024203334
-0.00087277929
-0.00019281626
-0.00076044378
-0.00014540939
-0.0006524941
-0.0001017207
-0.00055396723
-6.5044275e-05
-0.00046086107
-3.8181407e-05
-0.0003566929
-2.0851096e-05
-0.00022310968
-9.0199424e-06
-6.965432e-05
3.8402826e-06
-0.00062451033
1.9899063e-05
-0.00053974095
2.6623607e-05
-0.0004619714
2.7072862e-05
-0.00037053772
2.3216319e-05
-0.00024354184
1.3310733e-05
-9.1640293e-05
-0.00071825956
-0.00084862329
-0.00098189445
-0.0011020599
-0.0012002027
-0.0012701648
-0.0013157491
-0.0013419568
-0.0013323248
-0.0012569004
-0.0011148126
-0.00095326004
-0.00079790348
-0.00065568793
-0.00052590535
-0.00039487431
-0.00024396078
-7.8674263e-05
-0.00060461126
-0.00051311734
-0.00043489853
-0.0003473214
-0.00023023111
-9.1640293e-05
-0.00076634976
4.8090201e-05
-0.00087126792
2.2644633e-05
-0.00097089771
-1.0996745e-05
-0.0010532517
-4.8808129e-05
-0.0011129483
-8.7254428e-05
-0.0011431138
-0.00012705095
-0.0011449043
-0.00017084481
-0.0011267617
-0.00021519514
-0.0010852215
-0.00024710334
-0.0010170731
-0.0002398273
-0.00091688073
-0.0001979319
-0.00080085309
-0.00015240695
-0.00068714383
-0.00011075966
-0.00058091298
-7.4774958e-05
-0.00047917086
-4.673449e-05
-0.00036826903
-2.6605273e-05
-0.00023269161
-1.1269166e-05
-7.8674263e-05
6.161703e-05
-0.00066622829
6.3126139e-05
-0.00057624348
5.6057689e-05
-0.00049095622
4.4573207e-05
-0.00039189461
3.1556055e-05
-0.00026178716
1.5074836e-05
-0.00010671513
-0.00070473273
-0.00082317772
-0.00094825307
-0.0010642485
-0.0011617564
-0.0012303683
-0.0012719553
-0.0012976065
-0.0013004166
-0.0012641765
-0.001156708
-0.00099878499
-0.00083955077
-0.00069167263
-0.00055394582
-0.00041500352
-0.00025929689
-8.9943429e-05
-0.00060310216
-0.00052018579
-0.00044638302
-0.00036033856
-0.00024671233
-0.00010671513
-0.00082212938
0.00011739665
-0.00092945043
0.00010627271
-0.0010298944
8.16413e-05
-0.0011109472
4.6698657e-05
-0.0011680069
6.2505079e-06
-0.0011930284
-3.7339883e-05
-0.0011869977
-8.4957583e-05
-0.0011639428
-0.00013366367
-0.0011190216
-0.00018139502
-0.0010546114
-0.00020956504
-0.00096410472
-0.00019260331
-0.0008470811
-0.00015170389
-0.0007268988
-0.00011265197
-0.00061296506
-7.8707574e-05
-0.00050281035
-5.1135469e-05
-0.00038515325
-2.9850276e-05
-0.00024692318
-1.2373703e-05
-8.9943429e-05
0.0001147377
-0.00071783986
0.00010047294
-0.00062065874
7.9219193e-05
-0.00052560221
5.7153655e-05
-0.00041749221
3.6595212e-05
-0.00028330754
1.5281011e-05
-0.00012199614
-0.00070739167
-0.00081205378
-0.00092362166
-0.0010293059
-0.0011213083
-0.0011867779
-0.0012243376
-0.0012489004
-0.0012526853
-0.0012360065
-0.0011736698
-0.0010396844
-0.00087860269
-0.00072561703
-0.00058151792
-0.00043628872
-0.00027677346
-0.00010231713
-0.00061736692
-0.00054143954
-0.00046844855
-0.000380897
-0.00026802653
-0.00012199614
-0.00088314988
0.0001757582
-0.00099307521
0.00018102143
-0.0010938198
0.00017019812
-0.0011743864
0.00014508059
-0.0012297846
0.00010847634
-0.0012499251
6.3147169e-05
-0.0012363461
1.2008495e-05
-0.0012068895
-4.2010904e-05
-0.0011559267
-9.6758587e-05
-0.0010893325
-0.00014667394
-0.0010065772
-0.00016709252
-0.00089653303
-0.00014315138
-0.00077034846
-0.00010825424
-0.00064818948
-7.7427553e-05
-0.00052991035
-5.1607575e-05
-0.00040577628
-3.0512432e-05
-0.00026443015
-1.2343306e-05
-0.00010231713
0.00015621173
-0.00077357864
0.00012635065
-0.00066779019
9.3785973e-05
-0.00056223453
6.4101653e-05
-0.00044499865
3.8063623e-05
-0.00030609015
1.4003545e-05
-0.00013599968
-0.00072693815
-0.000817317
-0.00091279836
-0.0010041883
-0.001084704
-0.0011414487
-0.0011731989
-0.001194881
-0.0011979376
-0.0011860911
-0.0011532512
-0.0010636256
-0.00091349983
-0.00075644371
-0.0006073379
-0.00045738386
-0.00029494259
-0.00011466044
-0.00064722799
-0.00057400422
-0.00049813287
-0.00040693503
-0.00029208661
-0.00013599968
-0.0009422918
0.00021535365
-0.0010546548
0.00023733777
-0.0011559064
0.000243108
-0.001236347
0.00023215865
-0.0012908893
0.00020618526
-0.0013056612
0.00016421245
-0.0012872885
0.00011408957
-0.0012521588
5.7277808e-05
-0.0011942729
-3.6646399e-06
-0.0011218555
-6.4235624e-05
-0.001039726
-0.0001135252
-0.00094091781
-0.00012270775
-0.0008155605
-9.7939331e-05
-0.00068517467
-7.1269047e-05
-0.00055891266
-4.8425242e-05
-0.00042861648
-2.8767376e-05
-0.0002836767
-1.1265886e-05
-0.00011466044
0.00018031334
-0.00082754133
0.0001397386
-0.00071374282
0.00010016455
-0.00059829742
6.5525768e-05
-0.0004724608
3.610966e-05
-0.00032819627
1.1495515e-05
-0.0001474952
-0.00076197846
-0.00083930112
-0.00091856859
-0.00099323898
-0.0010587306
-0.0010994759
-0.001123076
-0.0011380692
-0.0011369951
-0.0011255201
-0.0011039616
-0.001054443
-0.00093826825
-0.000783114
-0.0006301817
-0.00047704172
-0.00031244408
-0.00012592632
-0.00068780273
-0.00061357827
-0.00053277166
-0.00043635114
-0.00031670075
-0.0001474952
-0.00099635386
0.0002343754
-0.0011106512
0.00027135003
-0.001213294
0.00029472541
-0.0012938334
0.00030059446
-0.001345638
0.00028690742
-0.0013540475
0.00025457157
-0.0013338488
0.00021077275
-0.0012936665
0.00015559728
-0.0012293084
9.2313292e-05
-0.0011505401
2.5019931e-05
-0.0010647374
-3.9224231e-05
-0.00097240038
-8.2042626e-05
-0.00085781848
-8.0449766e-05
-0.0007226123
-6.0501695e-05
-0.00058835659
-4.1825109e-05
-0.00045217432
-2.4867405e-05
-0.00030312401
-9.320065e-06
-0.00012592632
0.00018947369
-0.00087727642
0.00014256999
-0.00075614826
9.8915123e-05
-0.00063168678
6.1643662e-05
-0.0004979948
3.1072351e-05
-0.0003477731
8.0700201e-06
-0.00015556522
-0.00080688017
-0.00087627576
-0.00094194396
-0.00099910803
-0.0010450436
-0.00106714
-0.0010792772
-0.0010828938
-0.0010737111
-0.0010582268
-0.0010397174
-0.0010116246
-0.00093986111
-0.00080306207
-0.00064885829
-0.00049399943
-0.00032799142
-0.00013524639
-0.00073470643
-0.00065723313
-0.00057004312
-0.00046692245
-0.00033970308
-0.00015556522
-0.001046465
0.00023958482
-0.0011630415
0.00028676576
-0.0012641908
0.00032224683
-0.0013411908
0.00034208274
-0.0013860084
0.00034096482
-0.0013895959
0.00032245588
-0.0013691489
0.0002898717
-0.0013245579
0.00024166408
-0.0012553444
0.00018163328
-0.0011716033
0.00011337653
-0.0010813833
4.1665843e-05
-0.00098965132
-2.1973298e-05
-0.00088779597
-5.2065143e-05
-0.00075775761
-4.5304459e-05
-0.00061682476
-3.2033529e-05
-0.00047490043
-1.9098999e-05
-0.00032128389
-6.7075273e-06
-0.00013524639
0.00018727504
-0.00092198147
0.00013604822
-0.00079328135
9.0363719e-05
-0.00066040684
5.27515e-05
-0.00051967395
2.3401076e-05
-0.00036310416
4.0044572e-06
-0.00015956968
-0.00085918995
-0.0009234567
-0.00097742503
-0.0010189439
-0.0010439257
-0.0010486311
-0.001046693
-0.0010346862
-0.0010136803
-0.00098997001
-0.00096800676
-0.00094798547
-0.00090976926
-0.00080982275
-0.00066212922
-0.00050693396
-0.00034038289
-0.00014195392
-0.00078593325
-0.00070291763
-0.00060765534
-0.00049627287
-0.0003590997
-0.00015956968
-0.0010903316
0.00023114164
-0.0012067882
0.00028333155
-0.0013023828
0.00032495775
-0.0013707681
0.00035182414
-0.0014037486
0.00035982289
-0.0014042794
0.00035564825
-0.0013849082
0.00033821514
-0.0013378612
0.00030317505
-0.0012670688
0.00025338849
-0.0011810257
0.00019105573
-0.0010877679
0.00011976116
-0.00099453005
4.6544578e-05
-0.00090061962
-9.1496429e-06
-0.00078485685
-2.4965898e-05
-0.00064266208
-1.9467137e-05
-0.00049518079
-1.1753168e-05
-0.00033678775
-3.5951356e-06
-0.00014195392
0.00017479604
-0.0009607293
0.00012122532
-0.00082414295
7.5399734e-05
-0.00068305507
3.9325155e-05
-0.00053559803
1.3592874e-05
-0.00037269257
-3.5712123e-07
-0.00015921256
-0.00091553555
-0.00097564661
-0.0010190512
-0.0010458103
-0.0010519244
-0.0010444565
-0.0010292599
-0.00099964607
-0.00096389377
-0.00092763725
-0.00089671219
-0.00087476889
-0.00085407504
-0.0007940065
-0.00066762798
-0.00051464793
-0.00034854092
-0.00014554905
-0.00083950398
-0.00074874321
-0.00064372991
-0.00052200515
-0.0003730497
-0.00015921256
-0.00111065
0.00019511443
-0.0012180754
0.00024242876
-0.0013042875
0.0002852363
-0.0013666473
0.00032083693
-0.001398384
0.0003464596
-0.001401384
0.00035692754
-0.0013816777
0.00035241775
-0.0013339092
0.00033426311
-0.0012635186
0.00029962482
-0.0011767364
0.00024909919
-0.0010818802
0.00018516803
-0.00098681146
0.00011204257
-0.00089651316
4.2438114e-05
-0.00079652072
2.5142259e-06
-0.00066297645
-4.6515321e-06