/*--------------------------------*- C++ -*----------------------------------*\
| =========                 |                                                 |
| \\      /  F ield         | OpenFOAM: The Open Source CFD Toolbox           |
|  \\    /   O peration     | Version:  2112                                  |
|   \\  /    A nd           | Website:  www.openfoam.com                      |
|    \\/     M anipulation  |                                                 |
\*---------------------------------------------------------------------------*/
FoamFile
{
    version     2.0;
    format      ascii;
    arch        "LSB;label=32;scalar=64";
    class       volVectorField;
    location    "0.335";
    object      U;
}
// * * * * * * * * * * * * * * * * * * * * * * * * * * * * * * * * * * * * * //

dimensions      [0 1 -1 0 0 0 0];

internalField   nonuniform List<vector> 
16200
(
(0.11049154 -0.016578076 8.8211939e-28)
(0.16167502 -0.0098166391 0)
(0.33973674 0.0062797327 -3.8141453e-21)
(0.071539548 0.00048921921 0)
(0.40103811 0.016148895 2.2004335e-21)
(0.42706083 0.025330913 3.54717e-21)
(0.14869138 0.0010519121 -4.1681191e-21)
(0.53040625 0.027795773 -3.1027656e-21)
(0.30892637 0.0075544428 0)
(0.60107524 0.047680538 -7.9268931e-23)
(0.065055617 0.00092980441 4.5959705e-21)
(0.60438496 0.046449445 3.6264749e-21)
(0.56452532 0.027644704 0)
(0.374647 0.0073588333 0)
(0.14006535 -0.0015277922 1.8297676e-22)
(0.6960181 0.062161873 -1.2101655e-21)
(0.65393453 0.039527739 0)
(0.49811269 0.015183005 0)
(0.29425755 0.0011580432 6.3250353e-21)
(0.065344125 -0.00018250023 0)
(0.7043883 0.056595354 0)
(0.76367813 0.085463463 0)
(0.67934086 0.033326326 7.7883295e-23)
(0.54172759 0.011004431 7.7474011e-21)
(0.36080783 -0.0011466355 -6.0728683e-21)
(0.13892137 -0.0038726886 0)
(0.76623143 0.068309371 0)
(0.814998 0.097161801 1.3953592e-21)
(0.63168153 0.016057159 0)
(0.76217247 0.042040519 -9.6619248e-21)
(0.48445946 0.0019548276 -8.3270226e-21)
(0.28819171 -0.0048617532 0)
(0.070081814 -0.0014613801 5.0977974e-21)
(0.78426337 0.060784312 1.3348023e-20)
(0.81533414 0.088920598 -1.811921e-21)
(0.88203014 0.12282094 0)
(0.66831123 0.0058750446 9.706996e-21)
(0.78802218 0.02594628 0)
(0.53254519 -0.0049062789 0)
(0.35632569 -0.0091752597 5.6987973e-21)
(0.14399706 -0.0058599109 -9.2043462e-21)
(0.85896696 0.075139867 0)
(0.86841793 0.093243839 0)
(0.93160125 0.12900352 0)
(0.74722779 0.0046001052 -1.1796744e-20)
(0.62555277 -0.0058801847 -1.9279464e-20)
(0.87676161 0.024018709 0)
(0.48028743 -0.010769985 0)
(0.28997501 -0.0100054 -5.801672e-21)
(0.078057661 -0.0025113747 4.1568496e-21)
(0.90277763 0.070375228 -9.7772263e-22)
(0.92581813 0.11245405 0)
(1.0122893 0.15927663 0)
(0.78617126 -0.012946128 5.8662289e-22)
(0.66810537 -0.018560382 1.0157089e-20)
(0.91246447 0.00069018108 -9.5973751e-22)
(0.91195225 0.054264408 8.6550833e-21)
(0.53306103 -0.019025454 -5.7930532e-21)
(0.35963484 -0.015646486 3.324141e-21)
(0.15390362 -0.0070778563 -3.6790919e-23)
(0.9723934 0.087590292 -1.1047576e-20)
(0.97802942 0.11040131 9.3214468e-22)
(1.0672544 0.15786571 0)
(0.87365224 -0.024030563 -1.3230404e-20)
(0.75074076 -0.026888315 2.1429497e-20)
(0.6303052 -0.025356495 7.2928745e-21)
(1.0248921 -0.011765031 2.873215e-20)
(1.011318 0.049931717 -1.6151701e-22)
(0.48465826 -0.021381132 5.872455e-21)
(0.29831369 -0.013854239 -3.3257801e-21)
(0.088177198 -0.0032206796 0)
(1.0326451 0.077582228 0)
(1.0589037 0.13410037 0)
(1.1594128 0.19001162 0)
(0.92063295 -0.04869576 2.6247053e-20)
(0.79617568 -0.045289826 -1.2014767e-20)
(0.67799991 -0.038509314 -7.359497e-21)
(1.0575587 0.021706297 -7.0991357e-21)
(1.0709558 -0.046917736 -1.4544414e-20)
(0.5417442 -0.029964633 0)
(0.36948685 -0.019997769 2.614852e-22)
(0.16707668 -0.0073977507 -2.4796289e-21)
(1.11534 0.092744999 1.8847688e-20)
(1.1278134 0.12529266 -1.8197662e-21)
(1.2202845 0.1792282 0)
(1.0166512 -0.064733065 -1.5042289e-20)
(0.88443489 -0.06157809 -1.1501582e-20)
(0.76549975 -0.052180849 -7.1788458e-21)
(0.64388584 -0.04044215 3.5337584e-21)
(1.177538 0.032747609 2.0619353e-20)
(1.1640391 -0.061742535 0)
(0.49593019 -0.028963287 3.4417633e-22)
(0.31184683 -0.01607447 -2.6329422e-22)
(0.099163978 -0.0035379081 7.0904516e-21)
(1.1915466 0.072843545 -1.3520507e-20)
(1.2110511 0.1497565 0)
(1.3067699 0.21101651 0)
(1.0721729 -0.094330511 2.9462869e-20)
(0.93800665 -0.08493576 -1.0576686e-20)
(0.81636621 -0.069431288 1.2206709e-20)
(0.6960818 -0.052554541 -2.2990746e-21)
(1.2484052 -0.0062231517 -2.7271967e-20)
(1.2389307 -0.050842829 -2.0129503e-20)
(1.2042299 -0.096551963 -2.2228242e-20)
(0.55675479 -0.037051344 -3.451298e-22)
(0.38439638 -0.022106847 0)
(0.18184431 -0.0069535189 -4.5796075e-21)
(1.2795355 0.097463599 0)
(1.2808104 0.13720434 0)
(1.3669101 0.19249362 0)
(1.0346426 -0.10594621 -1.2185222e-20)
(1.1717751 -0.11512502 3.3863565e-20)
(0.90807446 -0.08988162 9.2092039e-21)
(0.78960103 -0.069728538 -4.9818086e-21)
(0.66397297 -0.050314548 -1.2622604e-21)
(1.358064 -0.0019283661 1.5130655e-20)
(1.3248147 -0.081531902 2.3786603e-20)
(1.3029559 -0.11235533 0)
(0.51253171 -0.033319054 0)
(0.32899758 -0.01660026 6.9597778e-21)
(0.10987109 -0.0034784247 0)
(1.3595804 0.078788722 0)
(1.3618537 0.16174123 -1.0894516e-20)
(1.4420958 0.22206717 0)
(1.0946481 -0.13088491 0)
(1.2248157 -0.14405638 -1.6563067e-20)
(0.96634778 -0.10962913 0)
(0.84450916 -0.084408509 -1.0174817e-22)
(0.71987889 -0.060611295 6.9632238e-23)
(1.3769873 0.042407478 0)
(1.4257225 -0.04591186 -1.6761722e-20)
(1.4074444 -0.087456485 0)
(1.3546488 -0.14636253 -1.5294176e-20)
(0.57616823 -0.040351789 -6.8343411e-21)
(0.40253286 -0.022077105 -7.0093461e-21)
(0.1966481 -0.0059049254 4.0605341e-23)
(1.4263523 0.10567281 8.7972532e-21)
(1.4298397 0.14116127 1.1508238e-20)
(1.4955998 0.19437414 -1.9886733e-22)
(1.0644171 -0.13437699 0)
(1.1943309 -0.15533903 0)
(1.3254264 -0.16655078 1.6048038e-20)
(0.9409318 -0.10742685 8.0401443e-22)
(0.81960071 -0.079735792 -3.372473e-21)
(0.68821389 -0.055172618 0)
(1.4750356 0.044240507 2.003389e-20)
(1.5073852 -0.040022649 0)
(1.4772553 -0.13072577 0)
(1.4547895 -0.16393525 1.0890209e-20)
(0.53260713 -0.034535798 6.85586e-21)
(0.34787065 -0.015597553 -4.0373803e-23)
(0.11926066 -0.0030735122 0)
(1.4879458 0.084937328 -8.8895815e-21)
(1.4908692 0.16336655 2.0676143e-22)
(1.5390709 0.22056811 0)
(1.1287985 -0.15475313 -2.0301023e-21)
(1.2567321 -0.18099259 5.3167721e-22)
(1.3840891 -0.19792684 -8.5759485e-21)
(1.0022907 -0.12325855 -7.0320987e-22)
(0.87758093 -0.091456932 9.4925507e-21)
(0.74710793 -0.06337498 0)
(1.5228161 0.0062800606 -9.0639747e-21)
(1.561478 -0.080298158 0)
(1.5488289 -0.12811848 0)
(1.5044557 -0.20226886 -1.1381172e-20)
(0.59819932 -0.040194078 1.6754087e-22)
(0.42203326 -0.020167287 -1.3989476e-20)
(0.21009038 -0.0044004622 1.5700664e-20)
(1.5354955 0.098588762 1.0588654e-20)
(1.540504 0.13801114 0)
(1.5708434 0.18743342 -2.4109091e-22)
(1.1033523 -0.15013433 2.0209412e-21)
(1.2289388 -0.18207233 0)
(1.3538739 -0.20650421 1.6784929e-20)
(1.4677163 -0.2191536 -1.4015245e-21)
(0.9790782 -0.11573734 0)
(0.85264278 -0.083267886 2.9299094e-21)
(0.71462525 -0.055529405 -1.671006e-22)
(1.5699507 0.018948819 -6.2889546e-21)
(1.5963354 -0.070674556 0)
(1.5990355 -0.16834139 -7.9558355e-21)
(1.5677173 -0.21719748 4.9555363e-21)
(0.55430828 -0.032859656 0)
(0.36654473 -0.013278782 3.0154323e-20)
(0.12646829 -0.0023956866 -1.5637146e-20)
(1.5755048 0.065743014 -2.361161e-21)
(1.5700408 0.15467509 2.4324249e-22)
(1.5881807 0.21527771 0)
(1.1706502 -0.16638517 0)
(1.2965459 -0.20285475 -9.3728731e-23)
(1.4169447 -0.23185953 -7.5957491e-21)
(1.5198476 -0.24843142 0)
(1.0428529 -0.1280562 2.0451587e-22)
(0.91317586 -0.092070578 -8.9574778e-21)
(0.7758013 -0.061513016 0)
(1.6010444 -0.019432236 -2.7224961e-21)
(1.6144927 -0.10894953 -2.5088716e-21)
(1.5926857 -0.20697761 2.4934659e-21)
(1.6120215 -0.15649311 1.2563104e-20)
(1.590888 -0.2511097 -6.0270498e-21)
(0.62107472 -0.036913489 0)
(0.44107353 -0.016651839 -1.6209967e-20)
(0.2210018 -0.002558212 0)
(1.5949644 0.080910322 -6.7539439e-21)
(1.5950212 0.12406221 0)
(1.5995867 0.17908863 9.3829449e-22)
(1.1481342 -0.15642304 -2.0486702e-22)
(1.2727739 -0.19641254 -5.0304438e-23)
(1.3928127 -0.23114953 1.4408239e-21)
(1.4950441 -0.25510535 3.764677e-22)
(1.5794146 -0.26199258 0)
(1.0200318 -0.11675562 -1.1706252e-20)
(0.88680948 -0.081177022 0)
(0.74145395 -0.051792832 0)
(1.609128 -0.0044440378 2.6108361e-21)
(1.6134633 -0.092731538 0)
(1.6150751 -0.22499976 -2.4316527e-21)
(1.616289 -0.18688163 -2.8308387e-21)
(1.61074 -0.2556332 -6.0430613e-21)
(0.57579504 -0.028557684 1.8769569e-20)
(0.38323809 -0.0098974838 0)
(0.13086968 -0.0015128366 0)
(1.6079181 0.045278411 -1.0149923e-21)
(1.6013913 0.1443741 -2.9394506e-22)
(1.5934211 0.20794963 -9.0418646e-22)
(1.2178798 -0.1694976 0)
(1.3433778 -0.21342826 6.2060519e-21)
(1.4561986 -0.25053836 2.7955888e-22)
(1.5451225 -0.27530899 -1.1296657e-22)
(1.6049928 -0.28264344 4.7525432e-21)
(1.0862423 -0.12583605 1.1524239e-20)
(0.94945846 -0.087069714 0)
(0.80418146 -0.055388543 -1.443618e-22)
(1.6130346 -0.041768976 6.0406874e-22)
(1.6078511 -0.12493568 8.4645263e-22)
(1.6140028 -0.22392956 2.3189619e-22)
(1.6055462 -0.17075772 -9.2766023e-22)
(1.6176095 -0.27217024 9.1510346e-22)
(0.64300938 -0.030784179 -3.9362381e-20)
(0.45791123 -0.01181478 2.1566417e-20)
(0.22843012 -0.00044051063 0)
(1.6055074 0.067009545 -2.4607867e-21)
(1.6044849 0.11141303 4.7121643e-23)
(1.5890088 0.1718054 0)
(1.1964505 -0.15542367 0)
(1.3225238 -0.20109966 -6.1769659e-21)
(1.4367091 -0.24261289 -1.572244e-21)
(1.5265623 -0.2727561 1.6464549e-23)
(1.5949723 -0.28663594 -1.2419876e-21)
(1.614385 -0.28579827 7.8853261e-21)
(1.0624242 -0.1113873 1.7205825e-20)
(0.92052702 -0.073901374 -1.9608586e-20)
(0.76697664 -0.044200512 0)
(1.6009155 -0.024617914 -5.9908259e-22)
(1.5812347 -0.10480044 -7.5162309e-21)
(1.6125378 -0.24628947 1.4482454e-21)
(1.5898984 -0.18559347 8.8710212e-22)
(1.6108579 -0.2718566 0)
(0.59520121 -0.021906454 2.066409e-20)
(0.39639727 -0.0057069602 -4.4514777e-20)
(0.13212433 -0.00045754102 0)
(1.5996165 0.030491402 3.4971063e-21)
(1.5900147 0.13574906 0)
(1.5603706 0.2002225 0)
(1.2676746 -0.16412778 0)
(1.3922032 -0.21152934 -1.1851404e-20)
(1.4951891 -0.25242733 6.7976105e-21)
(1.5701266 -0.28164373 -2.055527e-21)
(1.6131131 -0.29367843 -3.1607707e-21)
(1.6174811 -0.29338923 2.3198781e-21)
(1.1304036 -0.11707668 -1.717824e-20)
(0.98485711 -0.076696113 1.9651242e-20)
(0.83051511 -0.045198101 0)
(1.5825931 -0.056475611 3.7889702e-21)
(1.5507386 -0.12680018 8.1240358e-21)
(1.5848881 -0.24028362 3.8168044e-21)
(1.5512842 -0.16420934 -1.0660248e-20)
(1.5733885 -0.21855695 -8.06284e-21)
(1.6030416 -0.28108717 4.2616295e-23)
(0.6622027 -0.022082592 0)
(0.47097088 -0.0059028726 2.2925632e-20)
(0.2317217 0.0016797989 0)
(1.5642231 0.04693364 0)
(1.5715537 0.11922949 -1.9756645e-21)
(1.5323602 0.17298711 -2.0797632e-21)
(1.2438253 -0.14458791 0)
(1.37012 -0.19183337 1.182015e-20)
(1.476012 -0.23535273 2.2436205e-21)
(1.5544751 -0.26918615 2.0337241e-21)
(1.6070232 -0.29092714 0)
(1.6151747 -0.29534085 -8.704704e-21)
(1.6048831 -0.29152625 0)
(1.1034104 -0.099634725 8.1825379e-23)
(0.95225107 -0.061582548 2.4004189e-20)
(0.78943786 -0.033031261 2.4775121e-20)
(1.5375905 -0.036365814 6.1165924e-21)
(1.4990259 -0.10780727 5.8437075e-21)
(1.5580927 -0.25911849 4.0503273e-21)
(1.5119326 -0.17857234 1.6174946e-20)
(1.5222827 -0.21003659 -5.0862823e-21)
(1.5686472 -0.27589894 -2.3562152e-21)
(0.61070329 -0.013214536 -5.8262032e-24)
(0.40474189 -0.00084945674 0)
(0.13002316 0.00070911252 2.4451242e-20)
(1.5560635 0.081946512 0)
(1.5303323 0.0063593475 0)
(1.5339782 0.14613288 2.3801468e-21)
(1.4691485 0.18516445 2.0344714e-21)
(1.310871 -0.14351002 0)
(1.429896 -0.18728367 -1.6933876e-20)
(1.5231398 -0.22701536 -8.9746904e-21)
(1.5878854 -0.25994382 -5.4993478e-21)
(1.6179683 -0.28333578 -4.4321156e-22)
(1.6160228 -0.29402406 5.284464e-21)
(1.5954743 -0.29206481 -3.4582498e-21)
(1.170674 -0.099806144 -8.9216032e-23)
(1.0168628 -0.060899597 -2.3988984e-20)
(0.85309418 -0.031238063 -2.4766762e-20)
(1.4934975 -0.065008089 -1.5574297e-20)
(1.4488372 -0.12715651 0)
(1.5042293 -0.24832935 -9.4066271e-23)
(1.4583195 -0.16409395 -1.2468539e-20)
(1.4926984 -0.22330368 0)
(1.5422224 -0.27956979 2.4351378e-21)
(0.67695445 -0.01112983 6.3469372e-24)
(0.47876298 0.00082851096 2.5040284e-20)
(0.23036199 0.0035933461 -4.9080025e-20)
(1.5049024 0.094298653 2.3907155e-21)
(1.4761989 0.028538138 -1.220459e-20)
(1.494349 0.12661302 -2.4904025e-21)
(1.4304646 0.15922182 0)
(1.2792998 -0.11751383 8.8979523e-23)
(1.401324 -0.15818642 1.6806225e-20)
(1.4995668 -0.19780166 1.1065001e-22)
(1.5714415 -0.23406343 -1.497458e-21)
(1.6142245 -0.26584184 4.1773734e-22)
(1.6158344 -0.28608271 -2.4284123e-21)
(1.598465 -0.29175926 3.4453216e-21)
(1.5534902 -0.28691734 -1.9559032e-21)
(1.1369745 -0.078291585 0)
(0.97859482 -0.04431983 -2.7146312e-20)
(0.80714694 -0.018737481 -6.3200032e-24)
(1.4300403 -0.04111227 -6.2959991e-21)
(1.3807763 -0.10611526 -1.404345e-20)
(1.4663672 -0.25435414 0)
(1.4093051 -0.17900096 1.5085984e-20)
(1.4252017 -0.20886384 0)
(1.4817371 -0.26939171 1.0190474e-21)
(0.62068892 -0.0028970078 0)
(0.40736012 0.0043144362 5.049361e-23)
(0.1242081 0.0017466858 2.7065451e-22)
(1.4707322 0.069574201 0)
(1.4250653 0.003047856 1.1240021e-20)
(1.4413222 0.1381504 0)
(1.3321712 0.15415117 0)
(1.3319155 -0.10023401 -4.5514688e-23)
(1.4443754 -0.13365452 2.0965017e-20)
(1.5323971 -0.16885135 0)
(1.5934573 -0.20427182 1.558508e-20)
(1.6208352 -0.23771635 0)
(1.6148926 -0.26615113 0)
(1.5866293 -0.28116873 0)
(1.525784 -0.27948879 5.958406e-21)
(1.1966599 -0.068004834 0)
(1.0405067 -0.038348011 2.7141183e-20)
(0.86962841 -0.014017398 6.8003616e-24)
(1.371129 -0.063932828 6.2866366e-21)
(1.3219666 -0.12352664 0)
(1.3931447 -0.23981459 9.3967853e-21)
(1.3365455 -0.15963816 -2.976748e-21)
(1.3744915 -0.21785054 -6.0301375e-21)
(1.4400338 -0.26533998 -1.0919189e-21)
(0.68581771 0.0014720923 2.6079865e-20)
(0.48046594 0.0079186779 -2.5087995e-20)
(0.22419268 0.0055249572 6.5696626e-22)
(1.4076166 0.089263986 0)
(1.3580556 0.031565409 -1.957189e-20)
(1.3952308 0.11609909 0)
(1.289592 0.13057175 2.7891139e-21)
(1.2903037 -0.069285963 0)
(1.4075646 -0.097544782 -4.3407881e-20)
(1.50369 -0.13045923 0)
(1.5748039 -0.16742904 1.2138749e-21)
(1.6152798 -0.20494739 0)
(1.6172705 -0.23863744 -3.2807666e-21)
(1.592163 -0.2651816 0)
(1.5374892 -0.27432699 -1.4137036e-20)
(1.4583822 -0.26862847 -6.6317623e-21)
(1.1526708 -0.04376108 0)
(0.99430487 -0.020443002 2.873093e-20)
(0.81738625 -0.0020993542 -2.7595529e-20)
(1.2926965 -0.030107032 5.6229918e-21)
(1.2477532 -0.0984478 0)
(1.3392736 -0.23885157 -3.8036704e-21)
(1.2760898 -0.16959418 -1.5166451e-21)
(1.2943953 -0.19823544 8.0914322e-21)
(1.3607499 -0.25059416 5.9985193e-22)
(0.62411777 0.0081537076 -2.6073829e-20)
(0.40355782 0.0094055574 2.4050165e-20)
(0.11517187 0.0026919192 2.3581453e-20)
(1.3516104 0.065878422 0)
(1.2865201 0.009584208 2.1001925e-20)
(1.311634 0.11744328 7.8813718e-21)
(1.1704383 0.11528624 -2.7089271e-21)
(1.3253926 -0.03592341 -2.7293558e-20)
(1.4360497 -0.057998855 4.6406704e-20)
(1.526817 -0.088293647 1.8275882e-20)
(1.5911349 -0.12566443 -2.0959541e-20)
(1.6206209 -0.16560665 0)
(1.6141187 -0.20411867 3.1762709e-21)
(1.5780191 -0.23652913 8.3379335e-21)
(1.5080052 -0.25342076 2.8826073e-20)
(1.4141156 -0.25300425 -2.8584281e-21)
(1.1964527 -0.020269522 0)
(1.0470753 -0.0064451679 -2.8749972e-20)
(0.87622337 0.006226507 2.7596797e-20)
(1.2285735 -0.051342745 0)
(1.1807522 -0.11034119 0)
(1.2535377 -0.21966154 0)
(1.1963739 -0.14557421 1.2941722e-20)
(1.2320661 -0.2002689 -7.5054981e-21)
(1.3046957 -0.23857015 -6.0942094e-21)
(0.68758392 0.014525759 2.5018383e-20)
(0.47556415 0.014719112 -4.7034723e-20)
(0.21339887 0.007183284 -2.1278296e-20)
(1.2704296 0.07928884 0)
(1.1988461 0.031980572 1.8844281e-20)
(1.2508758 0.09674354 -7.6704434e-21)
(1.1255383 0.095540586 1.7142464e-22)
(1.2750887 -0.0045874359 2.7272565e-20)
(1.392768 -0.019915964 -2.3827603e-20)
(1.4940608 -0.046019386 1.0709082e-21)
(1.5711524 -0.082288978 1.1137543e-20)
(1.6144032 -0.12465037 0)
(1.6183017 -0.16609612 0)
(1.5900486 -0.20415958 1.3884723e-21)
(1.5248357 -0.23358035 -2.0561368e-20)
(1.4353016 -0.2445655 -2.9997607e-21)
(1.3296712 -0.23897717 6.0767981e-21)
(1.1430267 0.0035909292 0)
(0.99176697 0.010447365 -8.5090718e-25)
(0.81697173 0.016825939 1.9839861e-25)
(1.1419921 -0.027628206 -3.8932268e-20)
(1.1066055 -0.081741589 0)
(1.1893428 -0.21174414 0)
(1.1305903 -0.15000642 -1.1565844e-20)
(1.1469208 -0.17647913 -4.6557512e-22)
(1.2144576 -0.2207091 4.9522278e-21)
(0.62028938 0.019078414 -2.5017412e-20)
(0.39342355 0.014037417 2.2988859e-20)
(0.10357763 0.0035059642 2.1228709e-20)
(1.1886514 0.058248344 -1.0137157e-20)
(1.1247202 0.023385921 -2.9942534e-20)
(1.156244 0.088294133 -1.707145e-22)
(1.004318 0.079586486 -2.7572379e-21)
(1.2964583 0.037497822 0)
(1.4123589 0.026450885 1.1242055e-23)
(1.51216 0.0026570839 -3.9651875e-20)
(1.5851407 -0.033409108 1.3038182e-20)
(1.6197521 -0.07831708 4.7096051e-21)
(1.6148202 -0.12504762 -5.6847273e-23)
(1.575585 -0.16781588 -9.3860547e-21)
(1.4957289 -0.20068588 2.3682176e-22)
(1.3910989 -0.21750189 1.2409962e-20)
(1.2731163 -0.2170454 -1.2932708e-20)
(1.1705107 0.038190012 0)
(1.0301201 0.033537823 2.7095331e-20)
(0.86759485 0.030097454 0)
(1.1271784 0.0033114182 3.2370365e-20)
(1.0887285 -0.050883873 1.5088872e-20)
(1.0430576 -0.091506615 -1.1771543e-20)
(1.0996702 -0.18943181 0)
(1.0564403 -0.12138304 1.1950027e-20)
(1.0803412 -0.17204518 0)
(1.1498328 -0.20297444 -1.3531193e-20)
(0.68019304 0.027453592 2.2351966e-20)
(0.46415736 0.020619495 0)
(0.19845946 0.0082895708 0)
(1.108899 0.058884677 1.3606974e-20)
(1.0163083 0.023950138 7.2325002e-21)
(1.0944986 0.071120722 0)
(0.96034553 0.065077845 1.3594582e-21)
(1.2401537 0.064730103 0)
(1.363626 0.061306275 0)
(1.4741802 0.044353087 2.0209218e-20)
(1.561217 0.013653807 -1.3035707e-20)
(1.6123375 -0.029707674 5.5048164e-22)
(1.6195162 -0.07824602 0)
(1.5923694 -0.12561778 5.6791312e-23)
(1.5202288 -0.16831355 -2.0045138e-22)
(1.4178488 -0.19695801 -2.3671239e-22)
(1.3019729 -0.20685012 1.2901911e-20)
(1.1791127 -0.20150596 8.5822172e-21)
(1.1099142 0.057367338 2.6998386e-20)
(0.9680722 0.046135527 -2.7101582e-20)
(0.802667 0.037211986 0)
(1.0054492 0.00045556925 3.4334527e-20)
(1.0005888 -0.032400181 1.4311704e-20)
(0.9686243 -0.06436717 0)
(1.0330493 -0.17608999 0)
(0.99103462 -0.12054851 2.8054243e-22)
(1.0029317 -0.14468882 4.7498332e-21)
(1.05649 -0.18327845 0)
(0.60814724 0.029176565 -2.2356431e-20)
(0.3775949 0.017633345 -1.7765126e-20)
(0.090669402 0.0040864372 0)
(1.0044433 0.046551236 -1.2429803e-20)
(0.94922202 0.0093424099 -1.936337e-20)
(0.98439129 0.036001911 9.8895199e-21)
(0.99483388 0.062776418 0)
(0.82613704 0.050485759 1.2414191e-21)
(1.2538845 0.1091434 0)
(1.3787075 0.10914042 0)
(1.4896291 0.094651334 0)
(1.5735086 0.065067002 0)
(1.6176081 0.021900166 -5.2626749e-21)
(1.616983 -0.030004687 0)
(1.5788152 -0.083364062 1.1582604e-20)
(1.4918245 -0.12969879 0)
(1.375201 -0.16124957 0)
(1.2469998 -0.17626353 0)
(1.1157429 -0.17580554 1.5632665e-20)
(1.1249397 0.095730285 -2.6997956e-20)
(0.99198959 0.074896399 0)
(0.84184695 0.05473668 -2.1064779e-20)
(0.96457666 -0.01102425 -2.9644217e-20)
(0.94168969 -0.040712465 0)
(0.90443087 -0.067560472 1.0182739e-20)
(0.9519408 -0.15153595 0)
(0.92316856 -0.09097852 -1.0170063e-20)
(0.93812241 -0.13560193 -4.776803e-21)
(0.99149907 -0.16216833 0)
(0.66234862 0.03931151 1.8219402e-20)
(0.44666585 0.024935629 1.7765337e-20)
(0.18045733 0.0085808162 1.0999506e-25)
(0.94043847 0.047038464 -2.3204094e-21)
(0.84246008 0.008117739 -2.5248385e-20)
(0.84161996 0.02403064 0)
(0.78605666 0.041513567 -5.5947855e-21)
(1.1930335 0.12758991 0)
(1.3246125 0.13633631 -2.3234532e-20)
(1.4458148 0.1305792 0)
(1.5447426 0.10919406 0)
(1.6071267 0.072259831 -6.3042618e-21)
(1.6210496 0.023176386 -5.6876064e-21)
(1.5984601 -0.031443614 -2.305946e-20)
(1.522575 -0.086087126 -1.1647131e-22)
(1.4088495 -0.12967599 0)
(1.2810981 -0.15557272 0)
(1.1492959 -0.16465349 -1.5615918e-20)
(1.0191161 -0.15963208 0)
(1.0603673 0.10658277 0)
(0.92637787 0.080168097 -2.1087796e-20)
(0.7739088 0.056238585 3.9528053e-20)
(0.84297783 -0.0074054301 1.4152464e-20)
(0.8355709 -0.028100983 1.312211e-20)
(0.81308388 -0.04709926 -2.075467e-20)
(0.88917092 -0.13520397 8.1557506e-23)
(0.85838101 -0.086875492 2.0591536e-22)
(0.8722373 -0.10690053 0)
(0.90697054 -0.14152669 8.4128787e-21)
(0.58739787 0.037458239 -1.8228591e-20)
(0.35706138 0.019621092 -1.092804e-25)
(0.077639957 0.0043311573 -1.0629063e-20)
(0.83417104 0.037943776 -4.2338945e-22)
(0.78518214 -0.001062843 -2.7777105e-22)
(0.78833944 0.014494617 1.2401387e-20)
(0.78822764 0.02714645 9.3322649e-21)
(0.65726874 0.029037646 1.2014273e-21)
(1.204226 0.16785027 0)
(1.3393019 0.17970587 2.3234132e-20)
(1.4610589 0.17688849 0)
(1.556936 0.15816782 1.3996492e-20)
(1.61259 0.12282875 1.2871379e-20)
(1.6191082 0.073976717 1.068885e-21)
(1.5857415 0.016239646 2.4733124e-22)
(1.4946916 -0.040909665 8.4505051e-23)
(1.3672554 -0.087242993 0)
(1.2286637 -0.11783585 0)
(1.088818 -0.13232139 -3.0378941e-22)
(0.95738986 -0.13263689 0)
(1.0691079 0.14288358 2.0560011e-20)
(0.93967831 0.10942072 2.1088436e-20)
(0.80186916 0.075488976 -1.8450781e-20)
(0.78465423 -0.016948276 -1.3219704e-20)
(0.77089862 -0.033206105 1.1015249e-20)
(0.74561406 -0.047397188 9.4750251e-21)
(0.8223558 -0.10977896 -5.581388e-22)
(0.77925596 -0.062075689 -2.0679744e-22)
(0.80958377 -0.095928661 4.7566143e-22)
(0.84784514 -0.11960388 -8.4365704e-21)
(0.63479973 0.048462312 2.1774373e-25)
(0.42412953 0.027032923 0)
(0.1612452 0.0080397719 1.0657271e-20)
(0.65996073 -0.0035390483 -1.2215414e-20)
(0.66071982 0.0085236961 9.8275586e-21)
(0.65947871 0.018573353 5.9088943e-21)
(0.63165811 0.021441568 0)
(0.60456394 0.020999532 1.2516317e-21)
(1.1400579 0.17545348 -6.5075627e-25)
(1.2808126 0.19589752 0)
(1.4124579 0.20233407 0)
(1.5227652 0.19362164 -5.4996317e-22)
(1.5977579 0.16832787 -1.3308775e-20)
(1.6217702 0.12592996 6.1821198e-21)
(1.6063049 0.072467096 1.1352929e-20)
(1.53072 0.012190596 -1.8933169e-20)
(1.4082617 -0.044871922 -8.462088e-23)
(1.2692555 -0.086873088 -2.5519387e-20)
(1.1275367 -0.11173402 -2.3733643e-20)
(0.98986054 -0.12127637 3.0418961e-22)
(0.8700488 -0.11708127 0)
(1.0031986 0.14368908 -2.0579994e-20)
(0.87333154 0.10588074 0)
(0.73409233 0.070408058 1.2455694e-20)
(0.65676775 -0.014311005 0)
(0.6475512 -0.025040041 1.0881287e-21)
(0.63058196 -0.034023808 0)
(0.76374589 -0.093285061 0)
(0.71233803 -0.057068944 -2.8435733e-21)
(0.7392575 -0.070382227 2.8476978e-21)
(0.77898345 -0.099320813 0)
(0.55944474 0.042601826 0)
(0.33347333 0.019713894 7.5505964e-21)
(0.065528397 0.004217683 0)
(0.59837175 0.00098996944 -6.7948208e-22)
(0.5951146 -0.0084865329 1.1891017e-20)
(0.59910148 0.01132853 -1.7711441e-20)
(0.43397326 0.019428649 -3.1438531e-21)
(0.45659518 0.01163954 -1.2229975e-21)
(1.1528415 0.20727617 1.5388606e-20)
(1.2974374 0.23036327 1.6062205e-20)
(1.4287687 0.24008749 -1.0719305e-25)
(1.5350785 0.23527999 -1.2434288e-21)
(1.6036081 0.21383329 1.3244492e-20)
(1.6193177 0.17368087 -2.6172544e-21)
(1.5941265 0.12059007 0)
(1.5033289 0.059871096 3.720517e-20)
(1.3682438 0.002368382 2.4132521e-20)
(1.2200674 -0.043794622 2.5668566e-20)
(1.0715733 -0.074499377 4.9093938e-20)
(0.93286898 -0.090130426 1.5255264e-22)
(0.81609372 -0.091680692 1.1272412e-22)
(1.0108488 0.17272455 -4.4797854e-25)
(0.88135116 0.13076817 0)
(0.75380532 0.088153695 -1.245587e-20)
(0.58835584 -0.017793465 -1.112214e-20)
(0.57537657 -0.025792244 1.0068225e-20)
(0.55630741 -0.031677391 0)
(0.69858312 -0.070243699 4.8920992e-21)
(0.6069228 -0.040045815 0)
(0.67540563 -0.060473551 -1.108843e-23)
(0.72580342 -0.079514064 1.1890249e-20)
(0.60052657 0.052964153 0)
(0.39853831 0.026409029 -7.5505751e-21)
(0.14284236 0.0065613424 -3.0337579e-21)
(0.45804455 -0.0014007948 6.7064761e-22)
(0.45406909 -0.0078771811 -1.071658e-20)
(0.45895305 0.0049248882 8.4621696e-21)
(0.38830962 0.014591655 1.8512814e-21)
(0.38707976 0.0053932869 0)
(1.0865504 0.20359041 -1.5403016e-20)
(1.2356637 0.23443818 -1.6071626e-20)
(1.3768147 0.25285949 -2.424583e-25)
(1.4964043 0.25747468 -1.2191627e-20)
(1.5834163 0.24786343 -1.2782942e-20)
(1.6200822 0.21838164 1.3585175e-21)
(1.6135696 0.17325974 -8.9578819e-21)
(1.543159 0.1150956 1.5810645e-20)
(1.4169824 0.05180311 -2.4087432e-20)
(1.268454 -0.0039457265 2.6508057e-20)
(1.116809 -0.045044989 -2.549924e-20)
(0.97127897 -0.070465277 9.3394807e-23)
(0.84374099 -0.081332824 -1.5279419e-22)
(0.74529818 -0.077694887 -1.2004712e-20)
(0.94496374 0.16356806 0)
(0.81715838 0.11896419 -7.8073759e-21)
(0.68884485 0.076861018 0)
(0.44640122 -0.013571821 -1.0854283e-20)
(0.43418883 -0.018272963 -1.7244156e-20)
(0.41758583 -0.021359191 -4.7660081e-21)
(0.63951767 -0.056564054 2.6187683e-21)
(0.53280461 -0.034575512 1.4126802e-23)
(0.57912481 -0.042010403 -1.5741208e-21)
(0.66229744 -0.061127033 -7.4834391e-21)
(0.52736623 0.043380279 0)
(0.30915145 0.017696243 0)
(0.055731645 0.0037181645 3.0267716e-21)
(0.38307587 -0.0043388934 -3.3260368e-22)
(0.38648003 0.00073750389 -8.5843589e-21)
(0.37618383 -0.0087658557 2.20336e-20)
(0.21331828 0.01039265 4.2657836e-21)
(0.22006618 0.0003651437 5.4260806e-21)
(1.1035078 0.22391865 0)
(1.2556331 0.25722403 8.848869e-21)
(1.3951404 0.27926035 0)
(1.5099468 0.28811154 0)
(1.589455 0.28331668 6.2934551e-21)
(1.6174747 0.25775037 -3.5668364e-22)
(1.6022217 0.21652557 8.9583276e-21)
(1.5173985 0.15968406 -3.4035799e-20)
(1.3798388 0.096802331 0)
(1.2243583 0.039307775 -6.3653098e-22)
(1.0674007 -0.0064961201 0)
(0.92075631 -0.037778 0)
(0.79607086 -0.054466949 -2.0371643e-20)
(0.69836059 -0.056594358 0)
(0.95579822 0.18239885 -1.9998741e-25)
(0.82477679 0.13606969 7.8073465e-21)
(0.70452646 0.090184027 0)
(0.36502631 -0.012574584 9.2395872e-21)
(0.34967024 -0.015239195 7.9719199e-21)
(0.33113903 -0.016413955 4.7819605e-21)
(0.5505169 -0.03911783 3.902777e-21)
(0.39784692 -0.022343055 8.3293729e-22)
(0.50730263 -0.033802171 -2.3555179e-21)
(0.60903844 -0.045475827 -1.1754978e-20)
(0.56397636 0.051404806 -5.2748596e-26)
(0.37262372 0.022787225 -2.4026529e-22)
(0.12724975 0.0041789556 -1.3676599e-21)
(0.21352365 -0.0035745016 3.3225729e-22)
(0.21834728 -0.0017630536 8.0345169e-21)
(0.20556347 -0.0052728437 -1.0626153e-20)
(0.15511601 0.012109306 -5.568557e-21)
(0.13264834 0.0015114298 -5.8302507e-21)
(0.12476815 -0.00028167489 -8.5038675e-21)
(1.0369617 0.2092422 -3.0355913e-21)
(1.1919791 0.24833889 -1.3627436e-20)
(1.3408578 0.27859237 0)
(1.4688346 0.2964793 0)
(1.5643171 0.30105362 0)
(1.6154747 0.28992099 4.9717166e-22)
(1.6170722 0.25839051 0)
(1.5603142 0.209437 0)
(1.4355483 0.14607676 -9.3024076e-24)
(1.2811153 0.083319168 -2.5786307e-20)
(1.120312 0.029354861 -5.1794298e-23)
(0.96613014 -0.011136102 2.432578e-20)
(0.83027962 -0.037111773 2.0369837e-20)
(0.72317456 -0.047947639 0)
(0.63432701 -0.044300383 2.4951752e-20)
(0.89162788 0.16462247 0)
(0.76436793 0.11773186 0)
(0.64420929 0.074083074 5.261546e-26)
(0.19443499 -0.0066034417 1.8690968e-20)
(0.18027701 -0.0072626572 -7.7187336e-21)
(0.16424056 -0.0072438498 -2.9760376e-21)
(0.48276706 -0.029050185 8.1402265e-21)
(0.31114075 -0.015899037 -8.4916658e-22)
(0.37680937 -0.020925276 3.2779118e-21)
(0.52469156 -0.031257094 -8.1028107e-21)
(0.49519257 0.03914795 0)
(0.2868043 0.013620094 2.7045446e-21)
(0.049499004 0.0027645014 4.5106603e-21)
(0.11950922 -0.0010358057 0)
(0.1125143 -0.0018190061 1.0610915e-20)
(0.10354804 -0.0025343046 -9.773345e-21)
(1.0596572 0.21674319 3.0357956e-21)
(1.2164902 0.25748922 5.2129161e-21)
(1.3620095 0.29111376 9.5882178e-26)
(1.4840397 0.31382661 0)
(1.5712344 0.32343497 2.9438178e-21)
(1.6137335 0.31667034 -4.631736e-22)
(1.6091702 0.29086852 0)
(1.5383419 0.2435864 1.1236892e-20)
(1.4032594 0.1820684 4.9015746e-24)
(1.2431375 0.11970923 -2.2128813e-20)
(1.0785937 0.063929844 0)
(0.92346654 0.019420852 -2.4362362e-20)
(0.78989332 -0.011450011 1.9228816e-23)
(0.68313204 -0.027498567 0)
(0.58727257 -0.028723703 -1.3251295e-20)
(0.9082666 0.1718626 0)
(0.77603415 0.12542375 0)
(0.66025843 0.080930758 -1.1212976e-25)
(0.092926405 -0.0031634691 -1.1605617e-21)
(0.081707407 -0.0035350325 0)
(0.070705889 -0.0036069658 2.9746963e-21)
(0.35665543 -0.017046413 -1.7603817e-21)
(0.14796898 -0.0064931474 -8.5055322e-22)
(0.29166371 -0.013617899 -8.5521548e-21)
(0.46224439 -0.020603158 1.1255857e-20)
(0.52997246 0.043407251 0)
(0.34949139 0.016315446 -2.4640438e-21)
(0.11648026 0.0010084486 1.3330887e-21)
(0.99491542 0.19356697 0)
(1.1530997 0.23703722 -4.4314862e-22)
(1.3064646 0.27627146 0)
(1.4412257 0.30760866 5.3886646e-22)
(1.5445236 0.3261096 -2.9443318e-21)
(1.6053741 0.3303861 -3.799027e-22)
(1.6194858 0.31859491 -5.9495911e-26)
(1.5808813 0.28346882 -2.4446622e-21)
(1.4628209 0.22627396 -1.465025e-20)
(1.306929 0.16288527 4.1378475e-20)
(1.1391459 0.10204702 0)
(0.97638144 0.0503533 0)
(0.83141753 0.011159597 2.2193089e-23)
(0.71443227 -0.0132524 1.7908369e-20)
(0.61701529 -0.0222625 0)
(0.50485101 -0.019213989 -1.1256223e-20)
(0.84737986 0.1479845 0)
(0.72073812 0.10311218 1.1195386e-25)
(0.60565825 0.062254536 0)
(0.2748079 -0.0097147479 7.037669e-21)
(0.060951359 -0.0033743893 3.6322519e-21)
(0.13311122 -0.0049716546 1.8172422e-21)
(0.33968195 -0.010992377 0)
(0.46705249 0.030066313 -6.4661275e-26)
(0.26914495 0.0078543063 -3.367099e-26)
(0.047578565 0.00135749 -4.4763762e-21)
(1.0230348 0.1900834 2.7441113e-25)
(1.1824119 0.23364918 0)
(1.3311945 0.27443682 0)
(1.4588084 0.30965647 -3.4176969e-21)
(1.5539263 0.33385647 -8.4437622e-22)
(1.6061961 0.34218486 -2.2308221e-22)
(1.6138386 0.33609059 2.477834e-21)
(1.5625581 0.30498404 -1.5260438e-20)
(1.4357723 0.25075376 1.4648756e-20)
(1.2746258 0.18857735 -3.5399202e-20)