/*--------------------------------*- C++ -*----------------------------------*\
| =========                 |                                                 |
| \\      /  F ield         | OpenFOAM: The Open Source CFD Toolbox           |
|  \\    /   O peration     | Version:  2112                                  |
|   \\  /    A nd           | Website:  www.openfoam.com                      |
|    \\/     M anipulation  |                                                 |
\*---------------------------------------------------------------------------*/
FoamFile
{
    version     2.0;
    format      ascii;
    arch        "LSB;label=32;scalar=64";
    class       volVectorField;
    location    "0";
    object      U;
}
// * * * * * * * * * * * * * * * * * * * * * * * * * * * * * * * * * * * * * //

dimensions      [ 0 1 -1 0 0 0 0 ];

internalField   uniform ( 0 0 0 );

boundaryField
{
    inlet
    {
        type            fixedValue;
        value           nonuniform List<vector> 
188
(
(-0.057758845 0 0)
(-0.025405059 0 0)
(0.0066092058 0 0)
(0.038283952 0 0)
(0.069619176 0 0)
(0.10061488 0 0)
(0.13127107 0 0)
(0.16158773 0 0)
(0.19156488 0 0)
(0.2212025 0 0)
(0.2505006 0 0)
(0.27945919 0 0)
(0.30807825 0 0)
(0.3363578 0 0)
(0.36429782 0 0)
(0.39189832 0 0)
(0.41915931 0 0)
(0.44608077 0 0)
(0.47266271 0 0)
(0.49890514 0 0)
(0.52480804 0 0)
(0.55037142 0 0)
(0.57559528 0 0)
(0.60047963 0 0)
(0.62502445 0 0)
(0.64922975 0 0)
(0.67309553 0 0)
(0.69662179 0 0)
(0.71980853 0 0)
(0.74265576 0 0)
(0.76516346 0 0)
(0.78733164 0 0)
(0.8091603 0 0)
(0.83064944 0 0)
(0.85179906 0 0)
(0.87260916 0 0)
(0.89307974 0 0)
(0.9132108 0 0)
(0.93300234 0 0)
(0.95245436 0 0)
(0.97156686 0 0)
(0.99033984 0 0)
(1.0087733 0 0)
(1.0268672 0 0)
(1.0446217 0 0)
(1.0620366 0 0)
(1.0791119 0 0)
(1.0958478 0 0)
(1.1122441 0 0)
(1.128301 0 0)
(1.1440183 0 0)
(1.159396 0 0)
(1.1744343 0 0)
(1.189133 0 0)
(1.2034922 0 0)
(1.2175119 0 0)
(1.2311921 0 0)
(1.2445328 0 0)
(1.2575339 0 0)
(1.2701955 0 0)
(1.2825176 0 0)
(1.2945002 0 0)
(1.3061433 0 0)
(1.3174468 0 0)
(1.3284108 0 0)
(1.3390353 0 0)
(1.3493203 0 0)
(1.3592657 0 0)
(1.3688717 0 0)
(1.3781381 0 0)
(1.387065 0 0)
(1.3956524 0 0)
(1.4039002 0 0)
(1.4118086 0 0)
(1.4193774 0 0)
(1.4266067 0 0)
(1.4334964 0 0)
(1.4400467 0 0)
(1.4462574 0 0)
(1.4521286 0 0)
(1.4576603 0 0)
(1.4628525 0 0)
(1.4677052 0 0)
(1.4722183 0 0)
(1.4763919 0 0)
(1.480226 0 0)
(1.4837206 0 0)
(1.4868756 0 0)
(1.4896912 0 0)
(1.4921672 0 0)
(1.4943037 0 0)
(1.4961006 0 0)
(1.4975581 0 0)
(1.498676 0 0)
(1.4994544 0 0)
(1.4998933 0 0)
(1.4999927 0 0)
(1.4997526 0 0)
(1.4991729 0 0)
(1.4982537 0 0)
(1.496995 0 0)
(1.4953968 0 0)
(1.493459 0 0)
(1.4911817 0 0)
(1.488565 0 0)
(1.4856086 0 0)
(1.4823128 0 0)
(1.4786775 0 0)
(1.4747026 0 0)
(1.4703882 0 0)
(1.4657343 0 0)
(1.4607409 0 0)
(1.4554079 0 0)
(1.4497354 0 0)
(1.4437235 0 0)
(1.4373719 0 0)
(1.4306809 0 0)
(1.4236504 0 0)
(1.4162803 0 0)
(1.4085707 0 0)
(1.4005216 0 0)
(1.392133 0 0)
(1.3834048 0 0)
(1.3743371 0 0)
(1.3649299 0 0)
(1.3551832 0 0)
(1.345097 0 0)
(1.3346712 0 0)
(1.323906 0 0)
(1.3128012 0 0)
(1.3013569 0 0)
(1.289573 0 0)
(1.2774497 0 0)
(1.2649868 0 0)
(1.2521844 0 0)
(1.2390425 0 0)
(1.2255611 0 0)
(1.2117401 0 0)
(1.1975796 0 0)
(1.1830796 0 0)
(1.1682401 0 0)
(1.1530611 0 0)
(1.1375425 0 0)
(1.1216845 0 0)
(1.1054869 0 0)
(1.0889497 0 0)
(1.0720731 0 0)
(1.054857 0 0)
(1.0373013 0 0)
(1.0194061 0 0)
(1.0011714 0 0)
(0.98259713 0 0)
(0.96368337 0 0)
(0.94443009 0 0)
(0.9248373 0 0)
(0.90490498 0 0)
(0.88463314 0 0)
(0.86402179 0 0)
(0.84307091 0 0)
(0.82178051 0 0)
(0.80015059 0 0)
(0.77818116 0 0)
(0.7558722 0 0)
(0.73322372 0 0)
(0.71023572 0 0)
(0.6869082 0 0)
(0.66324117 0 0)
(0.63923461 0 0)
(0.61488853 0 0)
(0.59020293 0 0)
(0.56517781 0 0)
(0.53981317 0 0)
(0.51410901 0 0)
(0.48806533 0 0)
(0.46168213 0 0)
(0.43495941 0 0)
(0.40789717 0 0)
(0.38049541 0 0)
(0.35275413 0 0)
(0.32467333 0 0)
(0.29625301 0 0)
(0.26749317 0 0)
(0.23839381 0 0)
(0.20895493 0 0)
(0.17917653 0 0)
(0.14905861 0 0)
(0.11860117 0 0)
(0.087804207 0 0)
)
;
    }
    outlet
    {
        type            zeroGradient;
    }
    "(cylinder_wall|top|bottom)"
    {
        type            noSlip;
    }
    cylinder_jet1
    {
        type            fixedValue;
        value           uniform ( 0 0 0 );
    }
    cylinder_jet2
    {
        type            fixedValue;
        value           uniform ( 0 0 0 );
    }
    "(front|back)"
    {
        type            empty;
    }
}


// ************************************************************************* //
