# Force coefficients
# dragDir       : (1.00000000e+00 0.00000000e+00 0.00000000e+00)
# sideDir       : (0.00000000e+00 0.00000000e+00 -1.00000000e+00)
# liftDir       : (0.00000000e+00 1.00000000e+00 0.00000000e+00)
# rollAxis      : (1.00000000e+00 0.00000000e+00 0.00000000e+00)
# pitchAxis     : (0.00000000e+00 0.00000000e+00 -1.00000000e+00)
# yawAxis       : (0.00000000e+00 1.00000000e+00 0.00000000e+00)
# magUInf       : 1.00000000e+00
# lRef          : 1.00000000e-01
# Aref          : 4.47575700e-03
# CofR          : (0.00000000e+00 0.00000000e+00 0.00000000e+00)
#
# Time          	Cd              	Cs              	Cl              	CmRoll          	CmPitch         	CmYaw           	Cd(f)           	Cd(r)           	Cs(f)           	Cs(r)           	Cl(f)           	Cl(r)           
0.0005          	3.19864521e+00	1.43846985e-20	-8.48559166e-01	2.21439244e-21	-9.41842661e-03	2.33708188e-21	1.59932260e+00	1.59932260e+00	9.52943111e-21	4.85526736e-21	-4.33698010e-01	-4.14861157e-01
0.001           	3.22419639e+00	1.56768235e-20	-8.61248414e-01	2.23178291e-21	-9.39526336e-03	2.31676909e-21	1.61209819e+00	1.61209819e+00	1.01551808e-20	5.52164267e-21	-4.40019470e-01	-4.21228943e-01
0.0015          	3.22658876e+00	1.54955988e-20	-9.03729019e-01	2.33810716e-21	-9.40904680e-03	2.37866585e-21	1.61329438e+00	1.61329438e+00	1.01264653e-20	5.36913357e-21	-4.61273556e-01	-4.42455463e-01
0.002           	3.21933409e+00	1.54729220e-20	-8.97970148e-01	2.31318402e-21	-9.35412665e-03	2.35482681e-21	1.60966705e+00	1.60966705e+00	1.00912878e-20	5.38163419e-21	-4.58339201e-01	-4.39630947e-01
0.0025          	3.22145438e+00	1.54471806e-20	-9.05396608e-01	2.32787281e-21	-9.31105493e-03	2.37694706e-21	1.61072719e+00	1.61072719e+00	1.01005374e-20	5.34664323e-21	-4.62009359e-01	-4.43387249e-01
0.003           	3.21875218e+00	1.54129493e-20	-9.05741229e-01	2.32751370e-21	-9.27446407e-03	2.36667404e-21	1.60937609e+00	1.60937609e+00	1.00731487e-20	5.33980060e-21	-4.62145079e-01	-4.43596151e-01
0.0035          	3.21978702e+00	1.53820912e-20	-9.11647067e-01	2.33949114e-21	-9.23151638e-03	2.38023763e-21	1.60989351e+00	1.60989351e+00	1.00712833e-20	5.31080799e-21	-4.65055050e-01	-4.46592017e-01
0.004           	3.21863410e+00	1.53385636e-20	-9.13833752e-01	2.34422382e-21	-9.19285471e-03	2.37800143e-21	1.60931705e+00	1.60931705e+00	1.00472832e-20	5.29128037e-21	-4.66109730e-01	-4.47724021e-01
0.0045          	3.21924457e+00	1.53324002e-20	-9.18324067e-01	2.35234178e-21	-9.14900612e-03	2.38792395e-21	1.60962229e+00	1.60962229e+00	1.00541241e-20	5.27827617e-21	-4.68311040e-01	-4.50013027e-01
0.005           	3.21939552e+00	1.53355695e-20	-9.20761539e-01	2.35665751e-21	-9.10741368e-03	2.39112988e-21	1.60969776e+00	1.60969776e+00	1.00589147e-20	5.27665489e-21	-4.69488183e-01	-4.51273356e-01
0.0055          	3.22049215e+00	1.53208028e-20	-9.24905062e-01	2.36522288e-21	-9.06326661e-03	2.39956814e-21	1.61024608e+00	1.61024608e+00	1.00599695e-20	5.26083324e-21	-4.71515798e-01	-4.53389264e-01
0.006           	3.22191769e+00	1.53359798e-20	-9.27062754e-01	2.36928763e-21	-9.01993485e-03	2.40645677e-21	1.61095885e+00	1.61095885e+00	1.00744467e-20	5.26153314e-21	-4.72551312e-01	-4.54511442e-01
0.0065          	3.22195918e+00	1.53227652e-20	-9.29782704e-01	2.37365120e-21	-8.97486302e-03	2.41135816e-21	1.61097959e+00	1.61097959e+00	1.00727407e-20	5.25002443e-21	-4.73866215e-01	-4.55916489e-01
0.007           	3.22320773e+00	1.53184189e-20	-9.33367768e-01	2.38119969e-21	-8.93078405e-03	2.41862597e-21	1.61160386e+00	1.61160386e+00	1.00778354e-20	5.24058348e-21	-4.75614668e-01	-4.57753100e-01
0.0075          	3.22339354e+00	1.53009557e-20	-9.36421877e-01	2.38693125e-21	-8.88451993e-03	2.42390891e-21	1.61169677e+00	1.61169677e+00	1.00743868e-20	5.22656895e-21	-4.77095458e-01	-4.59326418e-01
0.008           	3.22398171e+00	1.52920769e-20	-9.40028910e-01	2.39476306e-21	-8.83932421e-03	2.42902381e-21	1.61199085e+00	1.61199085e+00	1.00750622e-20	5.21701461e-21	-4.78853779e-01	-4.61175131e-01
0.0085          	3.22408954e+00	1.52853120e-20	-9.43494328e-01	2.40073131e-21	-8.79221069e-03	2.43519164e-21	1.61204477e+00	1.61204477e+00	1.00778476e-20	5.20746435e-21	-4.80539375e-01	-4.62954953e-01
0.009           	3.22455008e+00	1.52734974e-20	-9.46716282e-01	2.40714656e-21	-8.74500716e-03	2.44044299e-21	1.61227504e+00	1.61227504e+00	1.00771917e-20	5.19630573e-21	-4.82103148e-01	-4.64613134e-01
0.0095          	3.22523592e+00	1.52679267e-20	-9.49985979e-01	2.41317580e-21	-8.69737326e-03	2.44702868e-21	1.61261796e+00	1.61261796e+00	1.00809920e-20	5.18693467e-21	-4.83690363e-01	-4.66295616e-01
0.01            	3.22648101e+00	1.52631895e-20	-9.52149292e-01	2.41759966e-21	-8.64893743e-03	2.45270001e-21	1.61324050e+00	1.61324050e+00	1.00842947e-20	5.17889472e-21	-4.84723583e-01	-4.67425708e-01
0.0105          	3.22750759e+00	1.52716787e-20	-9.55834735e-01	2.42452756e-21	-8.59935706e-03	2.46128720e-21	1.61375380e+00	1.61375380e+00	1.00971265e-20	5.17455214e-21	-4.86516725e-01	-4.69318011e-01
0.011           	3.22875569e+00	1.52752931e-20	-9.57870764e-01	2.42833345e-21	-8.54949726e-03	2.46701039e-21	1.61437784e+00	1.61437784e+00	1.01046569e-20	5.17063614e-21	-4.87484879e-01	-4.70385885e-01
0.0115          	3.22745536e+00	1.52377890e-20	-9.62480264e-01	2.43690502e-21	-8.49846154e-03	2.47005301e-21	1.61372768e+00	1.61372768e+00	1.00889475e-20	5.14884149e-21	-4.89738593e-01	-4.72741670e-01
0.012           	3.22881123e+00	1.52383567e-20	-9.63937855e-01	2.43946952e-21	-8.44722824e-03	2.47637467e-21	1.61440562e+00	1.61440562e+00	1.00955530e-20	5.14280367e-21	-4.90416156e-01	-4.73521699e-01
0.0125          	3.22966820e+00	1.52357580e-20	-9.66365739e-01	2.44341875e-21	-8.39574601e-03	2.48234155e-21	1.61483410e+00	1.61483410e+00	1.01002206e-20	5.13553745e-21	-4.91578615e-01	-4.74787123e-01
0.013           	3.23026967e+00	1.52251486e-20	-9.67735699e-01	2.44606156e-21	-8.34269792e-03	2.48559407e-21	1.61513483e+00	1.61513483e+00	1.00981684e-20	5.12698024e-21	-4.92210547e-01	-4.75525151e-01
0.0135          	3.23052948e+00	1.52272272e-20	-9.71843207e-01	2.45347078e-21	-8.28914949e-03	2.49319251e-21	1.61526474e+00	1.61526474e+00	1.01068061e-20	5.12042109e-21	-4.94210753e-01	-4.77632454e-01
0.014           	3.23145599e+00	1.52261034e-20	-9.74676158e-01	2.45842476e-21	-8.23477246e-03	2.49942332e-21	1.61572799e+00	1.61572799e+00	1.01124750e-20	5.11362836e-21	-4.95572851e-01	-4.79103306e-01
0.0145          	3.23215757e+00	1.52220355e-20	-9.77622091e-01	2.46396274e-21	-8.17988131e-03	2.50574862e-21	1.61607878e+00	1.61607878e+00	1.01167664e-20	5.10526914e-21	-4.96990927e-01	-4.80631164e-01
0.015           	3.23252658e+00	1.52213826e-20	-9.79425446e-01	2.46644125e-21	-8.12436159e-03	2.51020130e-21	1.61626329e+00	1.61626329e+00	1.01208926e-20	5.10048998e-21	-4.97837085e-01	-4.81588362e-01
0.0155          	3.23331240e+00	1.52151847e-20	-9.80495198e-01	2.46770290e-21	-8.06806640e-03	2.51443710e-21	1.61665620e+00	1.61665620e+00	1.01220294e-20	5.09315523e-21	-4.98315666e-01	-4.82179533e-01
0.016           	3.23447995e+00	1.52203804e-20	-9.84496278e-01	2.47604252e-21	-8.01100032e-03	2.52267107e-21	1.61723997e+00	1.61723997e+00	1.01328613e-20	5.08751912e-21	-5.00259140e-01	-4.84237139e-01
0.0165          	3.23505233e+00	1.52138011e-20	-9.85249457e-01	2.47657458e-21	-7.95353012e-03	2.52604309e-21	1.61752616e+00	1.61752616e+00	1.01329436e-20	5.08085744e-21	-5.00578259e-01	-4.84671198e-01
0.017           	3.23553537e+00	1.52081540e-20	-9.87414576e-01	2.48022319e-21	-7.89554046e-03	2.53110940e-21	1.61776769e+00	1.61776769e+00	1.01351864e-20	5.07296759e-21	-5.01602828e-01	-4.85811747e-01
0.0175          	3.23630200e+00	1.52137771e-20	-9.89231962e-01	2.48273873e-21	-7.83658756e-03	2.53652095e-21	1.61815100e+00	1.61815100e+00	1.01434095e-20	5.07036760e-21	-5.02452568e-01	-4.86779393e-01
0.018           	3.23605423e+00	1.52077990e-20	-9.89799149e-01	2.48253170e-21	-7.77731707e-03	2.53820771e-21	1.61802711e+00	1.61802711e+00	1.01421072e-20	5.06569177e-21	-5.02676892e-01	-4.87122257e-01
0.0185          	3.23639521e+00	1.51776163e-20	-9.93630919e-01	2.49043443e-21	-7.71752258e-03	2.54360231e-21	1.61819761e+00	1.61819761e+00	1.01324105e-20	5.04520586e-21	-5.04532982e-01	-4.89097937e-01
0.019           	3.23724643e+00	1.51903264e-20	-9.95436926e-01	2.49298691e-21	-7.65682546e-03	2.54882574e-21	1.61862322e+00	1.61862322e+00	1.01439889e-20	5.04633744e-21	-5.05375289e-01	-4.90061638e-01
0.0195          	3.23902810e+00	1.51758915e-20	-9.95821879e-01	2.49426009e-21	-7.59564595e-03	2.55376388e-21	1.61951405e+00	1.61951405e+00	1.01417096e-20	5.03418187e-21	-5.05506585e-01	-4.90315293e-01
0.02            	3.23856252e+00	1.51641845e-20	-9.97815082e-01	2.49673356e-21	-7.53353758e-03	2.55659377e-21	1.61928126e+00	1.61928126e+00	1.01386860e-20	5.02549846e-21	-5.06441079e-01	-4.91374003e-01
0.0205          	3.23899282e+00	1.51577317e-20	-9.98971155e-01	2.49820082e-21	-7.47051051e-03	2.56022722e-21	1.61949641e+00	1.61949641e+00	1.01390931e-20	5.01863862e-21	-5.06956088e-01	-4.92015067e-01
0.021           	3.23982297e+00	1.51577978e-20	-1.00023226e+00	2.49980604e-21	-7.40724015e-03	2.56501059e-21	1.61991149e+00	1.61991149e+00	1.01439095e-20	5.01388830e-21	-5.07523368e-01	-4.92708887e-01
0.0215          	3.24053264e+00	1.51590335e-20	-1.00137622e+00	2.50108417e-21	-7.34349193e-03	2.56940010e-21	1.62026632e+00	1.62026632e+00	1.01489168e-20	5.01011664e-21	-5.08031602e-01	-4.93344618e-01
0.022           	3.24153538e+00	1.51505625e-20	-1.00224659e+00	2.50258091e-21	-7.27952926e-03	2.57325957e-21	1.62076769e+00	1.62076769e+00	1.01485408e-20	5.00202168e-21	-5.08402826e-01	-4.93843767e-01
0.0225          	3.24049080e+00	1.51161307e-20	-1.00277605e+00	2.50218161e-21	-7.21493008e-03	2.57238466e-21	1.62024540e+00	1.62024540e+00	1.01304500e-20	4.98568067e-21	-5.08602953e-01	-4.94173093e-01
0.023           	3.24125865e+00	1.51516252e-20	-1.00375964e+00	2.50133321e-21	-7.14942655e-03	2.57914446e-21	1.62062932e+00	1.62062932e+00	1.01549571e-20	4.99666816e-21	-5.09029246e-01	-4.94730393e-01
0.0235          	3.24203581e+00	1.51507772e-20	-1.00421998e+00	2.50146733e-21	-7.08374099e-03	2.58259538e-21	1.62101791e+00	1.62101791e+00	1.01579840e-20	4.99279323e-21	-5.09193731e-01	-4.95026249e-01
0.024           	3.24283927e+00	1.51438822e-20	-1.00575342e+00	2.50408274e-21	-7.01680206e-03	2.58691476e-21	1.62141963e+00	1.62141963e+00	1.01588559e-20	4.98502636e-21	-5.09893512e-01	-4.95859908e-01
0.0245          	3.24236512e+00	1.51293624e-20	-1.00538120e+00	2.50141748e-21	-6.94939622e-03	2.58701402e-21	1.62118256e+00	1.62118256e+00	1.01516952e-20	4.97766718e-21	-5.09639994e-01	-4.95741202e-01
0.025           	3.24375199e+00	1.51371908e-20	-1.00573960e+00	2.50107390e-21	-6.88158975e-03	2.59218164e-21	1.62187599e+00	1.62187599e+00	1.01607771e-20	4.97641378e-21	-5.09751391e-01	-4.95988211e-01
0.0255          	3.24497684e+00	1.51504925e-20	-1.00575864e+00	2.49987680e-21	-6.81312886e-03	2.59662097e-21	1.62248842e+00	1.62248842e+00	1.01718672e-20	4.97862528e-21	-5.09692448e-01	-4.96066190e-01
0.026           	3.24451139e+00	1.51265295e-20	-1.00611671e+00	2.49972269e-21	-6.74359652e-03	2.59683776e-21	1.62225570e+00	1.62225570e+00	1.01601025e-20	4.96642700e-21	-5.09801954e-01	-4.96314761e-01
0.0265          	3.24529879e+00	1.51291350e-20	-1.00644553e+00	2.49900208e-21	-6.67374807e-03	2.60065983e-21	1.62264940e+00	1.62264940e+00	1.01652273e-20	4.96390766e-21	-5.09896511e-01	-4.96549014e-01
0.027           	3.24521054e+00	1.51214219e-20	-1.00698341e+00	2.49898476e-21	-6.60344790e-03	2.60261704e-21	1.62260527e+00	1.62260527e+00	1.01633280e-20	4.95809389e-21	-5.10095152e-01	-4.96888256e-01
0.0275          	3.24565009e+00	1.51200094e-20	-1.00709941e+00	2.49781656e-21	-6.53267417e-03	2.60563896e-21	1.62282505e+00	1.62282505e+00	1.01656437e-20	4.95436574e-21	-5.10082379e-01	-4.97017031e-01
0.028           	3.24657639e+00	1.51175886e-20	-1.00647125e+00	2.49552084e-21	-6.46175363e-03	2.60785836e-21	1.62328819e+00	1.62328819e+00	1.01666527e-20	4.95093596e-21	-5.09697380e-01	-4.96773872e-01
0.0285          	3.24677315e+00	1.51166218e-20	-1.00630991e+00	2.49361933e-21	-6.39002807e-03	2.60966075e-21	1.62338658e+00	1.62338658e+00	1.01679717e-20	4.94865017e-21	-5.09544983e-01	-4.96764927e-01
0.029           	3.24826242e+00	1.51224005e-20	-1.00620617e+00	2.49277579e-21	-6.31752469e-03	2.61414403e-21	1.62413121e+00	1.62413121e+00	1.01753443e-20	4.94705624e-21	-5.09420609e-01	-4.96785560e-01
0.0295          	3.24802961e+00	1.51099234e-20	-1.00469297e+00	2.48787376e-21	-6.24451396e-03	2.61304518e-21	1.62401481e+00	1.62401481e+00	1.01680069e-20	4.94191650e-21	-5.08590997e-01	-4.96101969e-01
0.03            	3.24774465e+00	1.50954146e-20	-1.00595236e+00	2.48933204e-21	-6.17073796e-03	2.61547294e-21	1.62387233e+00	1.62387233e+00	1.01631803e-20	4.93223438e-21	-5.09146920e-01	-4.96805444e-01
0.0305          	3.24846700e+00	1.50964954e-20	-1.00596867e+00	2.48825355e-21	-6.09638933e-03	2.61835341e-21	1.62423350e+00	1.62423350e+00	1.01666011e-20	4.92989429e-21	-5.09080727e-01	-4.96887948e-01
0.031           	3.24910686e+00	1.51073774e-20	-1.00363731e+00	2.48158083e-21	-6.02162206e-03	2.61925702e-21	1.62455343e+00	1.62455343e+00	1.01729457e-20	4.93443166e-21	-5.07840278e-01	-4.95797034e-01
0.0315          	3.24889165e+00	1.50974528e-20	-1.00290115e+00	2.47763512e-21	-5.94614495e-03	2.61986743e-21	1.62444583e+00	1.62444583e+00	1.01685938e-20	4.92885896e-21	-5.07396721e-01	-4.95504431e-01
0.032           	3.24943794e+00	1.50955910e-20	-1.00350977e+00	2.47794969e-21	-5.87026799e-03	2.62337045e-21	1.62471897e+00	1.62471897e+00	1.01711659e-20	4.92442502e-21	-5.07625154e-01	-4.95884618e-01
0.0325          	3.24978526e+00	1.50949932e-20	-1.00208573e+00	2.47318001e-21	-5.79418294e-03	2.62431471e-21	1.62489263e+00	1.62489263e+00	1.01718113e-20	4.92318191e-21	-5.06837048e-01	-4.95248682e-01
0.033           	3.25119647e+00	1.51094252e-20	-1.00098362e+00	2.47024869e-21	-5.71775381e-03	2.62734921e-21	1.62559823e+00	1.62559823e+00	1.01820618e-20	4.92736341e-21	-5.06209561e-01	-4.94774054e-01
0.0335          	3.25019243e+00	1.50832421e-20	-1.00015884e+00	2.46643673e-21	-5.64074609e-03	2.62523460e-21	1.62509621e+00	1.62509621e+00	1.01668557e-20	4.91638646e-21	-5.05720168e-01	-4.94438675e-01
0.034           	3.25040849e+00	1.50734199e-20	-9.99804408e-01	2.46452747e-21	-5.56329018e-03	2.62635147e-21	1.62520425e+00	1.62520425e+00	1.01630614e-20	4.91035850e-21	-5.05465494e-01	-4.94338914e-01
0.0345          	3.25103021e+00	1.50755287e-20	-9.98068747e-01	2.45944364e-21	-5.48553483e-03	2.62730804e-21	1.62551511e+00	1.62551511e+00	1.01650724e-20	4.91045629e-21	-5.04519908e-01	-4.93548839e-01
0.035           	3.25142227e+00	1.51010088e-20	-9.96113913e-01	2.45292186e-21	-5.40712320e-03	2.62908934e-21	1.62571113e+00	1.62571113e+00	1.01795937e-20	4.92141504e-21	-5.03464080e-01	-4.92649833e-01
0.0355          	3.25115652e+00	1.50654306e-20	-9.95639452e-01	2.45146107e-21	-5.32822865e-03	2.62780652e-21	1.62557826e+00	1.62557826e+00	1.01605218e-20	4.90490880e-21	-5.03147955e-01	-4.92491497e-01
0.036           	3.25213506e+00	1.50674791e-20	-9.94460741e-01	2.44768420e-21	-5.24893472e-03	2.63054727e-21	1.62606753e+00	1.62606753e+00	1.01642868e-20	4.90319226e-21	-5.02479305e-01	-4.91981436e-01
0.0365          	3.25187115e+00	1.50626805e-20	-9.93290727e-01	2.44368293e-21	-5.16923486e-03	2.62949404e-21	1.62593557e+00	1.62593557e+00	1.01608343e-20	4.90184619e-21	-5.01814598e-01	-4.91476129e-01
0.037           	3.25175655e+00	1.50607606e-20	-9.90898696e-01	2.43630788e-21	-5.08934502e-03	2.62883573e-21	1.62587828e+00	1.62587828e+00	1.01592160e-20	4.90154455e-21	-5.00538693e-01	-4.90360003e-01
0.0375          	3.25290947e+00	1.50717116e-20	-9.89142589e-01	2.43127337e-21	-5.00898131e-03	2.63081800e-21	1.62645474e+00	1.62645474e+00	1.01666738e-20	4.90503779e-21	-4.99580276e-01	-4.89562313e-01
0.038           	3.25266851e+00	1.50479057e-20	-9.87314550e-01	2.42621353e-21	-4.92863436e-03	2.62899163e-21	1.62633425e+00	1.62633425e+00	1.01529445e-20	4.89496123e-21	-4.98585909e-01	-4.88728641e-01
0.0385          	3.25182506e+00	1.50403719e-20	-9.84918854e-01	2.41843789e-21	-4.84748173e-03	2.62672769e-21	1.62591253e+00	1.62591253e+00	1.01469136e-20	4.89345825e-21	-4.97306909e-01	-4.87611945e-01
0.039           	3.25271173e+00	1.50364037e-20	-9.83369061e-01	2.41428484e-21	-4.76585950e-03	2.62806989e-21	1.62635587e+00	1.62635587e+00	1.01462717e-20	4.89013194e-21	-4.96450390e-01	-4.86918671e-01
0.0395          	3.25315330e+00	1.50291064e-20	-9.81413318e-01	2.40911699e-21	-4.68397292e-03	2.62765776e-21	1.62657665e+00	1.62657665e+00	1.01422110e-20	4.88689544e-21	-4.95390632e-01	-4.86022686e-01
0.04            	3.25346308e+00	1.50384274e-20	-9.79438442e-01	2.40299064e-21	-4.60150611e-03	2.62822683e-21	1.62673154e+00	1.62673154e+00	1.01474405e-20	4.89098690e-21	-4.94320727e-01	-4.85117715e-01
0.0405          	3.25299146e+00	1.50389951e-20	-9.76062646e-01	2.39341701e-21	-4.51866361e-03	2.62537158e-21	1.62649573e+00	1.62649573e+00	1.01448691e-20	4.89412595e-21	-4.92549987e-01	-4.83512659e-01
0.041           	3.25389963e+00	1.50363896e-20	-9.74453934e-01	2.38907086e-21	-4.43524571e-03	2.62685442e-21	1.62694981e+00	1.62694981e+00	1.01450492e-20	4.89134036e-21	-4.91662213e-01	-4.82791721e-01
0.0415          	3.25403832e+00	1.50363106e-20	-9.71600197e-01	2.38130790e-21	-4.35185136e-03	2.62541946e-21	1.62701916e+00	1.62701916e+00	1.01435748e-20	4.89273584e-21	-4.90151950e-01	-4.81448247e-01
0.042           	3.25451279e+00	1.50371122e-20	-9.68935924e-01	2.37431377e-21	-4.26802535e-03	2.62475845e-21	1.62725639e+00	1.62725639e+00	1.01433146e-20	4.89379767e-21	-4.88735987e-01	-4.80199936e-01
0.0425          	3.25461932e+00	1.50159372e-20	-9.67516176e-01	2.36984849e-21	-4.18326402e-03	2.62440899e-21	1.62730966e+00	1.62730966e+00	1.01323776e-20	4.88355962e-21	-4.87941352e-01	-4.79574824e-01
0.043           	3.25412775e+00	1.50057342e-20	-9.63781155e-01	2.36009266e-21	-4.09861874e-03	2.62005038e-21	1.62706387e+00	1.62706387e+00	1.01229175e-20	4.88281675e-21	-4.85989196e-01	-4.77791959e-01
0.0435          	3.25328247e+00	1.50100654e-20	-9.62045612e-01	2.35318041e-21	-4.01346481e-03	2.61969077e-21	1.62664124e+00	1.62664124e+00	1.01247235e-20	4.88534192e-21	-4.85036271e-01	-4.77009341e-01
0.044           	3.25418257e+00	1.50056453e-20	-9.59698761e-01	2.34760605e-21	-3.92787320e-03	2.61945719e-21	1.62709128e+00	1.62709128e+00	1.01222799e-20	4.88336548e-21	-4.83777254e-01	-4.75921507e-01
0.0445          	3.25454268e+00	1.50078498e-20	-9.56696401e-01	2.33962372e-21	-3.84239195e-03	2.61838553e-21	1.62727134e+00	1.62727134e+00	1.01223104e-20	4.88553935e-21	-4.82190593e-01	-4.74505809e-01
0.045           	3.25388796e+00	1.49845508e-20	-9.53430675e-01	2.33100458e-21	-3.75643377e-03	2.61415763e-21	1.62694398e+00	1.62694398e+00	1.01064330e-20	4.87811775e-21	-4.80471771e-01	-4.72958904e-01
0.0455          	3.25440059e+00	1.49923491e-20	-9.48449023e-01	2.31826763e-21	-3.67028618e-03	2.61125697e-21	1.62720029e+00	1.62720029e+00	1.01074315e-20	4.88491757e-21	-4.77894798e-01	-4.70554225e-01
0.046           	3.25440699e+00	1.49892344e-20	-9.44243844e-01	2.30750462e-21	-3.58394454e-03	2.60779043e-21	1.62720350e+00	1.62720350e+00	1.01024076e-20	4.88682678e-21	-4.75705866e-01	-4.68537977e-01
0.0465          	3.25439066e+00	1.49584150e-20	-9.44242110e-01	2.30704617e-21	-3.49688260e-03	2.60793753e-21	1.62719533e+00	1.62719533e+00	1.00871450e-20	4.87126995e-21	-4.75617938e-01	-4.68624173e-01
0.047           	3.25420869e+00	1.49694710e-20	-9.39772445e-01	2.29520003e-21	-3.40978036e-03	2.60434302e-21	1.62710435e+00	1.62710435e+00	1.00890785e-20	4.88039249e-21	-4.73296003e-01	-4.66476442e-01
0.0475          	3.25435280e+00	1.49976424e-20	-9.35254329e-01	2.28179637e-21	-3.32285969e-03	2.60348510e-21	1.62717640e+00	1.62717640e+00	1.01023063e-20	4.89533609e-21	-4.70950024e-01	-4.64304305e-01
0.048           	3.25378116e+00	1.49820441e-20	-9.32984843e-01	2.27565277e-21	-3.23525987e-03	2.60059589e-21	1.62689058e+00	1.62689058e+00	1.00916179e-20	4.89042616e-21	-4.69727682e-01	-4.63257162e-01
0.0485          	3.25375480e+00	1.49732059e-20	-9.28242436e-01	2.26373515e-21	-3.14668630e-03	2.59629286e-21	1.62687740e+00	1.62687740e+00	1.00828958e-20	4.89031011e-21	-4.67267904e-01	-4.60974531e-01
0.049           	3.25402826e+00	1.49748776e-20	-9.26024118e-01	2.25771448e-21	-3.05799967e-03	2.59557866e-21	1.62701413e+00	1.62701413e+00	1.00830175e-20	4.89186012e-21	-4.66070058e-01	-4.59954059e-01
0.0495          	3.25344169e+00	1.49645623e-20	-9.21332748e-01	2.24520074e-21	-2.96943127e-03	2.59054352e-21	1.62672084e+00	1.62672084e+00	1.00728247e-20	4.89173763e-21	-4.63635806e-01	-4.57696943e-01
0.05            	3.25340848e+00	1.49753533e-20	-9.18980123e-01	2.23790251e-21	-2.88070187e-03	2.59024374e-21	1.62670424e+00	1.62670424e+00	1.00779204e-20	4.89743293e-21	-4.62370763e-01	-4.56609360e-01
0.0505          	3.25346221e+00	1.49697574e-20	-9.13513801e-01	2.22461779e-21	-2.79193088e-03	2.58508398e-21	1.62673110e+00	1.62673110e+00	1.00699627e-20	4.89979473e-21	-4.59548831e-01	-4.53964970e-01
0.051           	3.25338603e+00	1.49571255e-20	-9.09602832e-01	2.21494994e-21	-2.70295414e-03	2.58139528e-21	1.62669301e+00	1.62669301e+00	1.00599580e-20	4.89716745e-21	-4.57504370e-01	-4.52098462e-01
0.0515          	3.25341355e+00	1.49533871e-20	-9.05941139e-01	2.20543120e-21	-2.61334622e-03	2.57853916e-21	1.62670678e+00	1.62670678e+00	1.00552327e-20	4.89815440e-21	-4.55583916e-01	-4.50357223e-01
0.052           	3.25355626e+00	1.49684107e-20	-9.01041403e-01	2.19277867e-21	-2.52381466e-03	2.57545330e-21	1.62677813e+00	1.62677813e+00	1.00596587e-20	4.90875207e-21	-4.53044516e-01	-4.47996887e-01
0.0525          	3.25303448e+00	1.49605872e-20	-8.96562184e-01	2.18091997e-21	-2.43407269e-03	2.57092786e-21	1.62651724e+00	1.62651724e+00	1.00512215e-20	4.90936574e-21	-4.50715164e-01	-4.45847019e-01
0.053           	3.25209970e+00	1.49468779e-20	-8.91948554e-01	2.16928488e-21	-2.34407840e-03	2.56494122e-21	1.62604985e+00	1.62604985e+00	1.00383802e-20	4.90849775e-21	-4.48318356e-01	-4.43630199e-01
0.0535          	3.25337759e+00	1.49534590e-20	-8.88991206e-01	2.16199231e-21	-2.25388635e-03	2.56555960e-21	1.62668879e+00	1.62668879e+00	1.00422891e-20	4.91116990e-21	-4.46749490e-01	-4.42241717e-01
0.054           	3.25231217e+00	1.49322870e-20	-8.84049173e-01	2.14974671e-21	-2.16358029e-03	2.55831539e-21	1.62615609e+00	1.62615609e+00	1.00244589e-20	4.90782809e-21	-4.44188167e-01	-4.39861006e-01
0.0545          	3.25305310e+00	1.49290449e-20	-8.80207805e-01	2.14103208e-21	-2.07325525e-03	2.55619310e-21	1.62652655e+00	1.62652655e+00	1.00207155e-20	4.90832934e-21	-4.42177158e-01	-4.38030647e-01
0.055           	3.25190608e+00	1.49210614e-20	-8.75301090e-01	2.12784363e-21	-1.98313561e-03	2.54988554e-21	1.62595304e+00	1.62595304e+00	1.00104163e-20	4.91064518e-21	-4.39633681e-01	-4.35667409e-01
0.0555          	3.25148915e+00	1.49221792e-20	-8.69624052e-01	2.11337412e-21	-1.89256086e-03	2.54473012e-21	1.62574457e+00	1.62574457e+00	1.00058197e-20	4.91635947e-21	-4.36704587e-01	-4.32919465e-01
0.056           	3.25130160e+00	1.49244613e-20	-8.65669750e-01	2.10317048e-21	-1.80219822e-03	2.54156579e-21	1.62565080e+00	1.62565080e+00	1.00037964e-20	4.92066486e-21	-4.34637073e-01	-4.31032677e-01
0.0565          	3.25086109e+00	1.49209308e-20	-8.60186352e-01	2.08953553e-21	-1.71100300e-03	2.53585606e-21	1.62543054e+00	1.62543054e+00	9.99632147e-21	4.92460935e-21	-4.31804179e-01	-4.28382173e-01
0.057           	3.25166854e+00	1.49195193e-20	-8.56442787e-01	2.08077493e-21	-1.61981249e-03	2.53422202e-21	1.62583427e+00	1.62583427e+00	9.99398166e-21	4.92553762e-21	-4.29841206e-01	-4.26601581e-01
0.0575          	3.25206319e+00	1.49232212e-20	-8.50648409e-01	2.06717853e-21	-1.52894528e-03	2.52959335e-21	1.62603159e+00	1.62603159e+00	9.99120398e-21	4.93201727e-21	-4.26853150e-01	-4.23795259e-01
0.058           	3.25027501e+00	1.49139946e-20	-8.45915404e-01	2.05351314e-21	-1.43767623e-03	2.52256145e-21	1.62513751e+00	1.62513751e+00	9.97955878e-21	4.93443587e-21	-4.24395378e-01	-4.21520026e-01
0.0585          	3.24956912e+00	1.48890517e-20	-8.41129874e-01	2.04211248e-21	-1.34607234e-03	2.51612668e-21	1.62478456e+00	1.62478456e+00	9.96065254e-21	4.92839919e-21	-4.21911009e-01	-4.19218865e-01
0.059           	3.24926084e+00	1.48558469e-20	-8.36596338e-01	2.03201547e-21	-1.25486289e-03	2.50983591e-21	1.62463042e+00	1.62463042e+00	9.93775935e-21	4.91808753e-21	-4.19553032e-01	-4.17043306e-01
0.0595          	3.24893471e+00	1.48940566e-20	-8.30022128e-01	2.01390890e-21	-1.16364036e-03	2.50575040e-21	1.62446735e+00	1.62446735e+00	9.95277872e-21	4.94127791e-21	-4.16174705e-01	-4.13847424e-01
0.06            	3.24889867e+00	1.48921046e-20	-8.24574013e-01	2.00078189e-21	-1.07248207e-03	2.50069767e-21	1.62444934e+00	1.62444934e+00	9.94674997e-21	4.94535463e-21	-4.13359488e-01	-4.11214524e-01
0.0605          	3.24867531e+00	1.48899471e-20	-8.18134720e-01	1.98518393e-21	-9.81983243e-04	2.49415725e-21	1.62433765e+00	1.62433765e+00	9.93913080e-21	4.95081630e-21	-4.10049343e-01	-4.08085377e-01
0.061           	3.24836901e+00	1.48847268e-20	-8.14024543e-01	1.97486697e-21	-8.90509108e-04	2.48988728e-21	1.62418450e+00	1.62418450e+00	9.93225067e-21	4.95247611e-21	-4.07902781e-01	-4.06121762e-01
0.0615          	3.24845248e+00	1.48773996e-20	-8.08666821e-01	1.96202078e-21	-7.98677238e-04	2.48481709e-21	1.62422624e+00	1.62422624e+00	9.92351686e-21	4.95388269e-21	-4.05132088e-01	-4.03534733e-01
0.062           	3.24791279e+00	1.48791919e-20	-8.02578842e-01	1.94651912e-21	-7.06943591e-04	2.47851861e-21	1.62395639e+00	1.62395639e+00	9.91811457e-21	4.96107735e-21	-4.01996365e-01	-4.00582478e-01
0.0625          	3.24753250e+00	1.48755067e-20	-7.97259576e-01	1.93365956e-21	-6.14720271e-04	2.47277193e-21	1.62376625e+00	1.62376625e+00	9.91052527e-21	4.96498142e-21	-3.99244508e-01	-3.98015068e-01
0.063           	3.24686613e+00	1.48713979e-20	-7.90797907e-01	1.91747146e-21	-5.22659234e-04	2.46568020e-21	1.62343307e+00	1.62343307e+00	9.90137916e-21	4.97001877e-21	-3.95921613e-01	-3.94876294e-01
0.0635          	3.24803042e+00	1.48807068e-20	-7.85377952e-01	1.90521698e-21	-4.30765703e-04	2.46262810e-21	1.62401521e+00	1.62401521e+00	9.90298151e-21	4.97772531e-21	-3.93119742e-01	-3.92258210e-01
0.064           	3.24577821e+00	1.48622415e-20	-7.79481269e-01	1.88945036e-21	-3.38904794e-04	2.45327646e-21	1.62288910e+00	1.62288910e+00	9.88439721e-21	4.97784429e-21	-3.90079539e-01	-3.89401730e-01
0.0645          	3.24544366e+00	1.48494677e-20	-7.72896088e-01	1.87393785e-21	-2.46873938e-04	2.44597138e-21	1.62272183e+00	1.62272183e+00	9.87070525e-21	4.97876249e-21	-3.86694918e-01	-3.86201170e-01
0.065           	3.24493532e+00	1.48427271e-20	-7.67281963e-01	1.86013181e-21	-1.55767918e-04	2.43968686e-21	1.62246766e+00	1.62246766e+00	9.86105044e-21	4.98167671e-21	-3.83796749e-01	-3.83485214e-01
0.0655          	3.24468451e+00	1.48431063e-20	-7.61916428e-01	1.84710925e-21	-6.40471352e-05	2.43418833e-21	1.62234226e+00	1.62234226e+00	9.85574150e-21	4.98736485e-21	-3.81022261e-01	-3.80894167e-01
0.066           	3.24452279e+00	1.48472453e-20	-7.54635645e-01	1.82938105e-21	2.76245279e-05	2.42729919e-21	1.62226140e+00	1.62226140e+00	9.85092184e-21	4.99632346e-21	-3.77290198e-01	-3.77345447e-01
0.0665          	3.24362289e+00	1.48422592e-20	-7.49673272e-01	1.81696686e-21	1.19110211e-04	2.42130623e-21	1.62181145e+00	1.62181145e+00	9.84243581e-21	4.99982334e-21	-3.74717526e-01	-3.74955746e-01
0.067           	3.24349286e+00	1.48464164e-20	-7.42854660e-01	1.80036690e-21	2.10639302e-04	2.41480323e-21	1.62174643e+00	1.62174643e+00	9.83801142e-21	5.00840495e-21	-3.71216691e-01	-3.71637969e-01
0.0675          	3.24204344e+00	1.48260440e-20	-7.37108639e-01	1.78620962e-21	3.02136919e-04	2.40596233e-21	1.62102172e+00	1.62102172e+00	9.81898433e-21	5.00705966e-21	-3.68252183e-01	-3.68856457e-01
0.068           	3.24199199e+00	1.48342212e-20	-7.29600947e-01	1.76826971e-21	3.93527867e-04	2.39891501e-21	1.62099600e+00	1.62099600e+00	9.81602560e-21	5.01819559e-21	-3.64406946e-01	-3.65194001e-01
0.0685          	3.24149835e+00	1.48041902e-20	-7.24593592e-01	1.75692195e-21	4.84086424e-04	2.39179440e-21	1.62074917e+00	1.62074917e+00	9.79388952e-21	5.01030072e-21	-3.61812709e-01	-3.62780882e-01
0.069           	3.24102315e+00	1.47984422e-20	-7.17542804e-01	1.73999710e-21	5.75488233e-04	2.38362631e-21	1.62051157e+00	1.62051157e+00	9.78284743e-21	5.01559482e-21	-3.58195914e-01	-3.59346890e-01
0.0695          	3.24031708e+00	1.47787392e-20	-7.11075921e-01	1.72474044e-21	6.66771074e-04	2.37509479e-21	1.62015854e+00	1.62015854e+00	9.76446439e-21	5.01427481e-21	-3.54871189e-01	-3.56204731e-01
0.07            	3.23999482e+00	1.48060576e-20	-7.04618180e-01	1.70784675e-21	7.58018566e-04	2.37022125e-21	1.61999741e+00	1.61999741e+00	9.77325004e-21	5.03280755e-21	-3.51551072e-01	-3.53067109e-01
0.0705          	3.23942930e+00	1.48133944e-20	-6.97185155e-01	1.68948103e-21	8.49174317e-04	2.36240305e-21	1.61971465e+00	1.61971465e+00	9.76910027e-21	5.04429418e-21	-3.47743403e-01	-3.49441752e-01
0.071           	3.23931209e+00	1.48004380e-20	-6.90867794e-01	1.67517093e-21	9.40308152e-04	2.35519329e-21	1.61965605e+00	1.61965605e+00	9.75541230e-21	5.04502572e-21	-3.44493589e-01	-3.46374205e-01
0.0715          	3.23849282e+00	1.47834455e-20	-6.84732900e-01	1.66056882e-21	1.03108671e-03	2.34706340e-21	1.61924641e+00	1.61924641e+00	9.73878617e-21	5.04465937e-21	-3.41335364e-01	-3.43397537e-01
0.072           	3.23697840e+00	1.47809709e-20	-6.76089141e-01	1.63915391e-21	1.12130561e-03	2.33602238e-21	1.61848920e+00	1.61848920e+00	9.72650781e-21	5.05446306e-21	-3.36923265e-01	-3.39165876e-01
0.0725          	3.23706650e+00	1.47987511e-20	-6.70098182e-01	1.62403961e-21	1.21234701e-03	2.33155801e-21	1.61853325e+00	1.61853325e+00	9.73093358e-21	5.06781756e-21	-3.33836744e-01	-3.36261438e-01