# Force coefficients
# dragDir       : (1.00000000e+00 0.00000000e+00 0.00000000e+00)
# sideDir       : (0.00000000e+00 0.00000000e+00 -1.00000000e+00)
# liftDir       : (0.00000000e+00 1.00000000e+00 0.00000000e+00)
# rollAxis      : (1.00000000e+00 0.00000000e+00 0.00000000e+00)
# pitchAxis     : (0.00000000e+00 0.00000000e+00 -1.00000000e+00)
# yawAxis       : (0.00000000e+00 1.00000000e+00 0.00000000e+00)
# magUInf       : 1.00000000e+00
# lRef          : 1.00000000e-01
# Aref          : 4.47575700e-03
# CofR          : (0.00000000e+00 0.00000000e+00 0.00000000e+00)
#
# Time          	Cd              	Cs              	Cl              	CmRoll          	CmPitch         	CmYaw           	Cd(f)           	Cd(r)           	Cs(f)           	Cs(r)           	Cl(f)           	Cl(r)           
0.0005          	3.19949728e+00	1.32916376e-20	-8.48857896e-01	2.21612996e-21	-9.41795515e-03	4.36833180e-21	1.59974864e+00	1.59974864e+00	1.10141506e-20	2.27748700e-21	-4.33846903e-01	-4.15010993e-01
0.001           	3.22363138e+00	1.48968048e-20	-8.60940535e-01	2.37337867e-21	-9.39467743e-03	4.27276464e-21	1.61181569e+00	1.61181569e+00	1.17211671e-20	3.17563778e-21	-4.39864945e-01	-4.21075590e-01
0.0015          	3.22661670e+00	1.47686287e-20	-9.03822282e-01	2.47636750e-21	-9.40877768e-03	4.35411055e-21	1.61330835e+00	1.61330835e+00	1.17384249e-20	3.03020379e-21	-4.61319919e-01	-4.42502363e-01
0.002           	3.21936146e+00	1.47290366e-20	-8.97895726e-01	2.44672158e-21	-9.35371798e-03	4.32645337e-21	1.60968073e+00	1.60968073e+00	1.16909717e-20	3.03806494e-21	-4.58301581e-01	-4.39594145e-01
0.0025          	3.22145731e+00	1.47112590e-20	-9.05457254e-01	2.46241971e-21	-9.31056595e-03	4.34838223e-21	1.61072866e+00	1.61072866e+00	1.17040117e-20	3.00724726e-21	-4.62039193e-01	-4.43418061e-01
0.003           	3.21872796e+00	1.46678102e-20	-9.05674600e-01	2.45743209e-21	-9.27403098e-03	4.33615295e-21	1.60936398e+00	1.60936398e+00	1.16700580e-20	2.99775215e-21	-4.62111331e-01	-4.43563269e-01
0.0035          	3.21984024e+00	1.46369059e-20	-9.11707615e-01	2.46848956e-21	-9.23111339e-03	4.35001761e-21	1.60992012e+00	1.60992012e+00	1.16684705e-20	2.96843532e-21	-4.65084921e-01	-4.46622694e-01
0.004           	3.21856788e+00	1.45865876e-20	-9.13756757e-01	2.46827480e-21	-9.19249837e-03	4.34641904e-21	1.60928394e+00	1.60928394e+00	1.16397129e-20	2.94687477e-21	-4.66070877e-01	-4.47685880e-01
0.0045          	3.21933380e+00	1.45821598e-20	-9.18393563e-01	2.47745256e-21	-9.14865421e-03	4.35599997e-21	1.60966690e+00	1.60966690e+00	1.16470799e-20	2.93507992e-21	-4.68345435e-01	-4.50048127e-01
0.005           	3.21928558e+00	1.45885315e-20	-9.20684537e-01	2.48207885e-21	-9.10708714e-03	4.35707113e-21	1.60964279e+00	1.60964279e+00	1.16513369e-20	2.93719459e-21	-4.69449356e-01	-4.51235181e-01
0.0055          	3.22060442e+00	1.45736700e-20	-9.24974773e-01	2.49078674e-21	-9.06292110e-03	4.36571901e-21	1.61030221e+00	1.61030221e+00	1.16525540e-20	2.92111598e-21	-4.71550308e-01	-4.53424465e-01
0.006           	3.22179964e+00	1.45939614e-20	-9.26987889e-01	2.49635767e-21	-9.01960605e-03	4.37042950e-21	1.61089982e+00	1.61089982e+00	1.16674102e-20	2.92655120e-21	-4.72513550e-01	-4.54474338e-01
0.0065          	3.22206509e+00	1.45776979e-20	-9.29844481e-01	2.50055553e-21	-8.97452960e-03	4.37448447e-21	1.61103255e+00	1.61103255e+00	1.16633334e-20	2.91436449e-21	-4.73896770e-01	-4.55947711e-01
0.007           	3.22310628e+00	1.45779912e-20	-9.33305780e-01	2.50791641e-21	-8.93045901e-03	4.38097322e-21	1.61155314e+00	1.61155314e+00	1.16699688e-20	2.90802237e-21	-4.75583349e-01	-4.57722431e-01
0.0075          	3.22349162e+00	1.45561661e-20	-9.36471934e-01	2.51280562e-21	-8.88420164e-03	4.38549090e-21	1.61174581e+00	1.61174581e+00	1.16635739e-20	2.89259213e-21	-4.77120169e-01	-4.59351766e-01
0.008           	3.22389381e+00	1.45511007e-20	-9.39981038e-01	2.52027390e-21	-8.83900888e-03	4.38925896e-21	1.61194690e+00	1.61194690e+00	1.16648093e-20	2.88629139e-21	-4.78829528e-01	-4.61151510e-01
0.0085          	3.22417810e+00	1.45426878e-20	-9.43533127e-01	2.52643441e-21	-8.79188300e-03	4.39479747e-21	1.61208905e+00	1.61208905e+00	1.16661414e-20	2.87654642e-21	-4.80558446e-01	-4.62974680e-01
0.009           	3.22446250e+00	1.45341455e-20	-9.46679867e-01	2.53193362e-21	-8.74467243e-03	4.39895590e-21	1.61223125e+00	1.61223125e+00	1.16660286e-20	2.86811683e-21	-4.82084606e-01	-4.64595261e-01
0.0095          	3.22532331e+00	1.45266681e-20	-9.50013518e-01	2.53833187e-21	-8.69703930e-03	4.40492845e-21	1.61266166e+00	1.61266166e+00	1.16682625e-20	2.85840558e-21	-4.83703798e-01	-4.66309720e-01
0.01            	3.22639800e+00	1.45242647e-20	-9.52114472e-01	2.54255013e-21	-8.64859743e-03	4.40916937e-21	1.61319900e+00	1.61319900e+00	1.16713017e-20	2.85296297e-21	-4.84705833e-01	-4.67408638e-01
0.0105          	3.22758607e+00	1.45353252e-20	-9.55868629e-01	2.55133148e-21	-8.59901933e-03	4.41705976e-21	1.61379303e+00	1.61379303e+00	1.16847224e-20	2.85060285e-21	-4.86533334e-01	-4.69335295e-01
0.011           	3.22867555e+00	1.45422470e-20	-9.57830375e-01	2.55584775e-21	-8.54915283e-03	4.42107121e-21	1.61433778e+00	1.61433778e+00	1.16921947e-20	2.85005229e-21	-4.87464340e-01	-4.70366035e-01
0.0115          	3.22753697e+00	1.45002951e-20	-9.62506419e-01	2.56137232e-21	-8.49811069e-03	4.42425204e-21	1.61376848e+00	1.61376848e+00	1.16743996e-20	2.82589549e-21	-4.89751320e-01	-4.72755099e-01
0.012           	3.22875262e+00	1.45007260e-20	-9.63891384e-01	2.56386844e-21	-8.44687644e-03	4.42868457e-21	1.61437631e+00	1.61437631e+00	1.16790476e-20	2.82167846e-21	-4.90392568e-01	-4.73498815e-01
0.0125          	3.22972174e+00	1.44984676e-20	-9.66398465e-01	2.56844343e-21	-8.39538854e-03	4.43377891e-21	1.61486087e+00	1.61486087e+00	1.16830127e-20	2.81545491e-21	-4.91594621e-01	-4.74803844e-01
0.013           	3.23022421e+00	1.44854255e-20	-9.67697420e-01	2.57006041e-21	-8.34232774e-03	4.43496992e-21	1.61511211e+00	1.61511211e+00	1.16776826e-20	2.80774281e-21	-4.92191038e-01	-4.75506382e-01
0.0135          	3.23057352e+00	1.44913673e-20	-9.71873803e-01	2.57857177e-21	-8.28877876e-03	4.44206883e-21	1.61528676e+00	1.61528676e+00	1.16877525e-20	2.80361480e-21	-4.94225680e-01	-4.77648123e-01
0.014           	3.23141377e+00	1.44928365e-20	-9.74639270e-01	2.58378711e-21	-8.23439528e-03	4.44748098e-21	1.61570688e+00	1.61570688e+00	1.16938992e-20	2.79893728e-21	-4.95554030e-01	-4.79085240e-01
0.0145          	3.23219648e+00	1.44897857e-20	-9.77653209e-01	2.58968516e-21	-8.17950787e-03	4.45289440e-21	1.61609824e+00	1.61609824e+00	1.16977872e-20	2.79199845e-21	-4.97006112e-01	-4.80647096e-01
0.015           	3.23248912e+00	1.44887968e-20	-9.79388797e-01	2.59213102e-21	-8.12398572e-03	4.45544984e-21	1.61624456e+00	1.61624456e+00	1.16998482e-20	2.78894855e-21	-4.97818384e-01	-4.81570413e-01
0.0155          	3.23334830e+00	1.44810635e-20	-9.80514787e-01	2.59339464e-21	-8.06768700e-03	4.45819106e-21	1.61667415e+00	1.61667415e+00	1.16987228e-20	2.78234068e-21	-4.98325080e-01	-4.82189706e-01
0.016           	3.23445248e+00	1.44905712e-20	-9.84476873e-01	2.60277346e-21	-8.01061829e-03	4.46563159e-21	1.61722624e+00	1.61722624e+00	1.17109172e-20	2.77965400e-21	-5.00249055e-01	-4.84227818e-01
0.0165          	3.23507078e+00	1.44816651e-20	-9.85265845e-01	2.60308256e-21	-7.95314669e-03	4.46722037e-21	1.61753539e+00	1.61753539e+00	1.17080529e-20	2.77361216e-21	-5.00586069e-01	-4.84679776e-01
0.017           	3.23551502e+00	1.44754558e-20	-9.87390775e-01	2.60634086e-21	-7.89514528e-03	4.47085064e-21	1.61775751e+00	1.61775751e+00	1.17085785e-20	2.76687726e-21	-5.01590533e-01	-4.85800242e-01
0.0175          	3.23632474e+00	1.44828803e-20	-9.89238662e-01	2.61004172e-21	-7.83617949e-03	4.47484822e-21	1.61816237e+00	1.61816237e+00	1.17162884e-20	2.76659192e-21	-5.02455511e-01	-4.86783152e-01
0.018           	3.23603226e+00	1.44741453e-20	-9.89779218e-01	2.60928644e-21	-7.77691660e-03	4.47380592e-21	1.61801613e+00	1.61801613e+00	1.17108786e-20	2.76326671e-21	-5.02666525e-01	-4.87112692e-01
0.0185          	3.23642563e+00	1.44415205e-20	-9.93639916e-01	2.61472023e-21	-7.71712318e-03	4.47950807e-21	1.61821281e+00	1.61821281e+00	1.17002683e-20	2.74125220e-21	-5.04537081e-01	-4.89102835e-01
0.019           	3.23722213e+00	1.44577518e-20	-9.95412675e-01	2.61912292e-21	-7.65642239e-03	4.48294550e-21	1.61861106e+00	1.61861106e+00	1.17118214e-20	2.74593042e-21	-5.05362760e-01	-4.90049915e-01
0.0195          	3.23905634e+00	1.44377497e-20	-9.95837195e-01	2.61933400e-21	-7.59524065e-03	4.48637756e-21	1.61952817e+00	1.61952817e+00	1.17052524e-20	2.73249727e-21	-5.05513838e-01	-4.90323357e-01
0.02            	3.23853714e+00	1.44250371e-20	-9.97790245e-01	2.62069349e-21	-7.53312426e-03	4.48760162e-21	1.61926857e+00	1.61926857e+00	1.17001202e-20	2.72491692e-21	-5.06428247e-01	-4.91361998e-01
0.0205          	3.23902799e+00	1.44163667e-20	-9.98984269e-01	2.62193925e-21	-7.47009813e-03	4.48961880e-21	1.61951399e+00	1.61951399e+00	1.16978022e-20	2.71856457e-21	-5.06962233e-01	-4.92022036e-01
0.021           	3.23979548e+00	1.44164191e-20	-1.00020058e+00	2.62368680e-21	-7.40682781e-03	4.49264202e-21	1.61989774e+00	1.61989774e+00	1.17008516e-20	2.71556754e-21	-5.07507119e-01	-4.92693463e-01
0.0215          	3.24056227e+00	1.44174250e-20	-1.00139019e+00	2.62561234e-21	-7.34308125e-03	4.49545525e-21	1.62028113e+00	1.62028113e+00	1.17041678e-20	2.71325725e-21	-5.08038177e-01	-4.93352015e-01
0.022           	3.24151085e+00	1.44069346e-20	-1.00221771e+00	2.62654416e-21	-7.27912295e-03	4.49752335e-21	1.62075543e+00	1.62075543e+00	1.17009906e-20	2.70594394e-21	-5.08387977e-01	-4.93829731e-01
0.0225          	3.24051776e+00	1.43623701e-20	-1.00278901e+00	2.62269767e-21	-7.21452065e-03	4.49492795e-21	1.62025888e+00	1.62025888e+00	1.16761130e-20	2.68625709e-21	-5.08609023e-01	-4.94179982e-01
0.023           	3.24123785e+00	1.44077317e-20	-1.00374039e+00	2.62560833e-21	-7.14902327e-03	4.49943153e-21	1.62061892e+00	1.62061892e+00	1.17032974e-20	2.70443431e-21	-5.09019219e-01	-4.94721172e-01
0.0235          	3.24205481e+00	1.44022882e-20	-1.00422648e+00	2.62591103e-21	-7.08333916e-03	4.50082409e-21	1.62102740e+00	1.62102740e+00	1.17019682e-20	2.70032002e-21	-5.09196581e-01	-4.95029903e-01
0.024           	3.24282516e+00	1.43971834e-20	-1.00573167e+00	2.62833169e-21	-7.01640793e-03	4.50393128e-21	1.62141258e+00	1.62141258e+00	1.17025230e-20	2.69466044e-21	-5.09882242e-01	-4.95849426e-01
0.0245          	3.24238698e+00	1.43745884e-20	-1.00539095e+00	2.62419422e-21	-6.94900505e-03	4.50159794e-21	1.62119349e+00	1.62119349e+00	1.16888921e-20	2.68569627e-21	-5.09644480e-01	-4.95746470e-01
0.025           	3.24373982e+00	1.43854038e-20	-1.00571894e+00	2.62488846e-21	-6.88120131e-03	4.50499813e-21	1.62186991e+00	1.62186991e+00	1.16977000e-20	2.68770375e-21	-5.09740671e-01	-4.95978269e-01
0.0255          	3.24499085e+00	1.43967080e-20	-1.00575761e+00	2.62535778e-21	-6.81274118e-03	4.50722348e-21	1.62249542e+00	1.62249542e+00	1.17055775e-20	2.69113052e-21	-5.09691546e-01	-4.96066063e-01
0.026           	3.24450219e+00	1.43694929e-20	-1.00610984e+00	2.62298087e-21	-6.74320632e-03	4.50544131e-21	1.62225109e+00	1.62225109e+00	1.16901878e-20	2.67930515e-21	-5.09798125e-01	-4.96311712e-01
0.0265          	3.24531895e+00	1.43681128e-20	-1.00644864e+00	2.62263842e-21	-6.67336682e-03	4.50743593e-21	1.62265947e+00	1.62265947e+00	1.16914923e-20	2.67662049e-21	-5.09897689e-01	-4.96550955e-01
0.027           	3.24519270e+00	1.43609680e-20	-1.00696604e+00	2.62208713e-21	-6.60307433e-03	4.50725197e-21	1.62259635e+00	1.62259635e+00	1.16877360e-20	2.67323204e-21	-5.10086096e-01	-4.96879948e-01
0.0275          	3.24567709e+00	1.43543082e-20	-1.00709605e+00	2.62070445e-21	-6.53230084e-03	4.50821162e-21	1.62283855e+00	1.62283855e+00	1.16853657e-20	2.66894249e-21	-5.10080326e-01	-4.97015724e-01
0.028           	3.24655560e+00	1.43518776e-20	-1.00647198e+00	2.61858781e-21	-6.46139329e-03	4.50833585e-21	1.62327780e+00	1.62327780e+00	1.16842746e-20	2.66760294e-21	-5.09697383e-01	-4.96774596e-01
0.0285          	3.24678855e+00	1.43460192e-20	-1.00630440e+00	2.61664126e-21	-6.38966071e-03	4.50784593e-21	1.62339427e+00	1.62339427e+00	1.16808555e-20	2.66516369e-21	-5.09541862e-01	-4.96762540e-01
0.029           	3.24825181e+00	1.43535860e-20	-1.00620008e+00	2.61676057e-21	-6.31716203e-03	4.51046884e-21	1.62412590e+00	1.62412590e+00	1.16872618e-20	2.66632415e-21	-5.09417201e-01	-4.96782877e-01
0.0295          	3.24804047e+00	1.43323514e-20	-1.00469908e+00	2.61053030e-21	-6.24415134e-03	4.50665459e-21	1.62402024e+00	1.62402024e+00	1.16728303e-20	2.65952111e-21	-5.08593691e-01	-4.96105388e-01
0.03            	3.24774016e+00	1.43177254e-20	-1.00593318e+00	2.61071082e-21	-6.17037498e-03	4.50766087e-21	1.62387008e+00	1.62387008e+00	1.16665236e-20	2.65120186e-21	-5.09136965e-01	-4.96796215e-01
0.0305          	3.24848695e+00	1.43143643e-20	-1.00596065e+00	2.60983515e-21	-6.09602768e-03	4.50854898e-21	1.62424348e+00	1.62424348e+00	1.16657311e-20	2.64863318e-21	-5.09076352e-01	-4.96884297e-01
0.031           	3.24909234e+00	1.43248785e-20	-1.00364118e+00	2.60441495e-21	-6.02126000e-03	4.50603333e-21	1.62454617e+00	1.62454617e+00	1.16684726e-20	2.65640591e-21	-5.07841849e-01	-4.95799329e-01
0.0315          	3.24890312e+00	1.43089285e-20	-1.00289984e+00	2.59925524e-21	-5.94578709e-03	4.50463720e-21	1.62445156e+00	1.62445156e+00	1.16591014e-20	2.64982704e-21	-5.07395706e-01	-4.95504132e-01
0.032           	3.24943400e+00	1.43069387e-20	-1.00351316e+00	2.59952328e-21	-5.86992165e-03	4.50643879e-21	1.62471700e+00	1.62471700e+00	1.16599082e-20	2.64703057e-21	-5.07626499e-01	-4.95886656e-01
0.0325          	3.24979001e+00	1.43016368e-20	-1.00208115e+00	2.59454398e-21	-5.79384201e-03	4.50480522e-21	1.62489500e+00	1.62489500e+00	1.16556236e-20	2.64601316e-21	-5.06834415e-01	-4.95246731e-01
0.033           	3.25120100e+00	1.43162997e-20	-1.00096155e+00	2.59352257e-21	-5.71741524e-03	4.50507110e-21	1.62560050e+00	1.62560050e+00	1.16632210e-20	2.65307877e-21	-5.06198192e-01	-4.94763361e-01
0.0335          	3.25019456e+00	1.42822615e-20	-1.00016772e+00	2.58702196e-21	-5.64040396e-03	4.50093635e-21	1.62509728e+00	1.62509728e+00	1.16420671e-20	2.64019440e-21	-5.05724262e-01	-4.94443455e-01
0.034           	3.25041596e+00	1.42689932e-20	-9.99790356e-01	2.58424829e-21	-5.56294909e-03	4.50011117e-21	1.62520798e+00	1.62520798e+00	1.16346078e-20	2.63438543e-21	-5.05458127e-01	-4.94332229e-01
0.0345          	3.25102811e+00	1.42664024e-20	-9.98073812e-01	2.57938231e-21	-5.48519971e-03	4.49836620e-21	1.62551406e+00	1.62551406e+00	1.16315674e-20	2.63483498e-21	-5.04522106e-01	-4.93551706e-01
0.035           	3.25142590e+00	1.42940502e-20	-9.96102839e-01	2.57544264e-21	-5.40679287e-03	4.49669928e-21	1.62571295e+00	1.62571295e+00	1.16437244e-20	2.65032583e-21	-5.03458212e-01	-4.92644627e-01
0.0355          	3.25115858e+00	1.42481255e-20	-9.95659302e-01	2.57044682e-21	-5.32790053e-03	4.49389058e-21	1.62557929e+00	1.62557929e+00	1.16179533e-20	2.63017217e-21	-5.03157551e-01	-4.92501750e-01
0.036           	3.25213925e+00	1.42480930e-20	-9.94448438e-01	2.56676871e-21	-5.24861188e-03	4.49451081e-21	1.62606962e+00	1.62606962e+00	1.16185573e-20	2.62953567e-21	-5.02472831e-01	-4.91975607e-01
0.0365          	3.25187031e+00	1.42388516e-20	-9.93288022e-01	2.56251262e-21	-5.16891827e-03	4.49081242e-21	1.62593515e+00	1.62593515e+00	1.16102382e-20	2.62861337e-21	-5.01812929e-01	-4.91475093e-01
0.037           	3.25176370e+00	1.42323929e-20	-9.90890904e-01	2.55470319e-21	-5.08902879e-03	4.48723249e-21	1.62588185e+00	1.62588185e+00	1.16034289e-20	2.62896394e-21	-5.00534481e-01	-4.90356423e-01
0.0375          	3.25291039e+00	1.42413069e-20	-9.89135975e-01	2.55098654e-21	-5.00866693e-03	4.48666802e-21	1.62645519e+00	1.62645519e+00	1.16073215e-20	2.63398542e-21	-4.99576655e-01	-4.89559321e-01
0.038           	3.25267707e+00	1.42094201e-20	-9.87311464e-01	2.54347964e-21	-4.92832071e-03	4.48251747e-21	1.62633853e+00	1.62633853e+00	1.15872275e-20	2.62219257e-21	-4.98584053e-01	-4.88727411e-01
0.0385          	3.25182736e+00	1.41950479e-20	-9.84938065e-01	2.53453662e-21	-4.84716572e-03	4.47736150e-21	1.62591368e+00	1.62591368e+00	1.15748855e-20	2.62016246e-21	-4.97316198e-01	-4.87621867e-01
0.039           	3.25271707e+00	1.41873248e-20	-9.83357944e-01	2.52996219e-21	-4.76555768e-03	4.47643585e-21	1.62635854e+00	1.62635854e+00	1.15700983e-20	2.61722655e-21	-4.96444530e-01	-4.86913414e-01
0.0395          	3.25315280e+00	1.41734615e-20	-9.81419228e-01	2.52406622e-21	-4.68367856e-03	4.47366528e-21	1.62657640e+00	1.62657640e+00	1.15603960e-20	2.61306547e-21	-4.95393293e-01	-4.86025935e-01
0.04            	3.25346904e+00	1.41820670e-20	-9.79426922e-01	2.51891397e-21	-4.60120894e-03	4.47143998e-21	1.62673452e+00	1.62673452e+00	1.15624735e-20	2.61959353e-21	-4.94314670e-01	-4.85112252e-01
0.0405          	3.25299030e+00	1.41756030e-20	-9.76060840e-01	2.50914671e-21	-4.51836485e-03	4.46501607e-21	1.62649515e+00	1.62649515e+00	1.15528176e-20	2.62278542e-21	-4.92548785e-01	-4.83512055e-01
0.041           	3.25390920e+00	1.41697540e-20	-9.74442530e-01	2.50447263e-21	-4.43494893e-03	4.46447877e-21	1.62695460e+00	1.62695460e+00	1.15493558e-20	2.62039822e-21	-4.91656214e-01	-4.82786316e-01
0.0415          	3.25403633e+00	1.41635342e-20	-9.71595830e-01	2.49660031e-21	-4.35155823e-03	4.45992566e-21	1.62701817e+00	1.62701817e+00	1.15416928e-20	2.62184145e-21	-4.90149473e-01	-4.81446357e-01
0.042           	3.25451845e+00	1.41604403e-20	-9.68936897e-01	2.48986323e-21	-4.26772479e-03	4.45645266e-21	1.62725923e+00	1.62725923e+00	1.15366728e-20	2.62376751e-21	-4.88736173e-01	-4.80200724e-01
0.0425          	3.25461755e+00	1.41316129e-20	-9.67515825e-01	2.48289391e-21	-4.18296403e-03	4.45449975e-21	1.62730878e+00	1.62730878e+00	1.15203062e-20	2.61130671e-21	-4.87940877e-01	-4.79574949e-01
0.043           	3.25414319e+00	1.41129152e-20	-9.63775913e-01	2.47201494e-21	-4.09832129e-03	4.44668292e-21	1.62707159e+00	1.62707159e+00	1.15031405e-20	2.60977466e-21	-4.85986278e-01	-4.77789635e-01
0.0435          	3.25327265e+00	1.41152602e-20	-9.62045012e-01	2.46506576e-21	-4.01316827e-03	4.44369452e-21	1.62663633e+00	1.62663633e+00	1.15013246e-20	2.61393558e-21	-4.85035674e-01	-4.77009338e-01
0.044           	3.25420130e+00	1.41047897e-20	-9.59691933e-01	2.45916024e-21	-3.92759098e-03	4.44108380e-21	1.62710065e+00	1.62710065e+00	1.14934787e-20	2.61131106e-21	-4.83773557e-01	-4.75918375e-01
0.0445          	3.25452758e+00	1.41031407e-20	-9.56697134e-01	2.45138439e-21	-3.84211482e-03	4.43706658e-21	1.62726379e+00	1.62726379e+00	1.14886369e-20	2.61450375e-21	-4.82190682e-01	-4.74506452e-01
0.045           	3.25391035e+00	1.40685102e-20	-9.53435463e-01	2.44008585e-21	-3.75615261e-03	4.42998502e-21	1.62695517e+00	1.62695517e+00	1.14642401e-20	2.60427007e-21	-4.80473884e-01	-4.72961579e-01
0.0455          	3.25438545e+00	1.40708301e-20	-9.48452354e-01	2.42797940e-21	-3.67000556e-03	4.42331286e-21	1.62719273e+00	1.62719273e+00	1.14587279e-20	2.61210221e-21	-4.77896183e-01	-4.70556172e-01
0.046           	3.25442379e+00	1.40592246e-20	-9.44227496e-01	2.41672045e-21	-3.58366500e-03	4.41640639e-21	1.62721190e+00	1.62721190e+00	1.14460187e-20	2.61320592e-21	-4.75697413e-01	-4.68530083e-01
0.0465          	3.25439098e+00	1.40226432e-20	-9.44243237e-01	2.41320764e-21	-3.49660225e-03	4.41580469e-21	1.62719549e+00	1.62719549e+00	1.14271263e-20	2.59551689e-21	-4.75618221e-01	-4.68625016e-01
0.047           	3.25422789e+00	1.40275431e-20	-9.39757478e-01	2.40229841e-21	-3.40949871e-03	4.40827434e-21	1.62711395e+00	1.62711395e+00	1.14220459e-20	2.60549723e-21	-4.73288238e-01	-4.66469240e-01
0.0475          	3.25433944e+00	1.40556868e-20	-9.35257172e-01	2.39124572e-21	-3.32258222e-03	4.40364670e-21	1.62716972e+00	1.62716972e+00	1.14314901e-20	2.62419669e-21	-4.70951168e-01	-4.64306004e-01
0.048           	3.25380079e+00	1.40321734e-20	-9.32972064e-01	2.38340165e-21	-3.23497909e-03	4.39825534e-21	1.62690039e+00	1.62690039e+00	1.14143420e-20	2.61783137e-21	-4.69721011e-01	-4.63251053e-01
0.0485          	3.25375176e+00	1.40144915e-20	-9.28237455e-01	2.37033425e-21	-3.14640225e-03	4.39059763e-21	1.62687588e+00	1.62687588e+00	1.13978434e-20	2.61664814e-21	-4.67265130e-01	-4.60972325e-01
0.049           	3.25403881e+00	1.40124878e-20	-9.26012182e-01	2.36451904e-21	-3.05771780e-03	4.38745692e-21	1.62701941e+00	1.62701941e+00	1.13937008e-20	2.61878701e-21	-4.66063809e-01	-4.59948373e-01
0.0495          	3.25344000e+00	1.39930317e-20	-9.21337991e-01	2.35060053e-21	-2.96914816e-03	4.37909206e-21	1.62672000e+00	1.62672000e+00	1.13756079e-20	2.61742378e-21	-4.63638144e-01	-4.57699847e-01
0.05            	3.25341748e+00	1.40022788e-20	-9.18965950e-01	2.34410504e-21	-2.88041931e-03	4.37624353e-21	1.62670874e+00	1.62670874e+00	1.13773829e-20	2.62489585e-21	-4.62363394e-01	-4.56602556e-01
0.0505          	3.25346143e+00	1.39868057e-20	-9.13520183e-01	2.33013941e-21	-2.79164920e-03	4.36726726e-21	1.62673071e+00	1.62673071e+00	1.13606701e-20	2.62613558e-21	-4.59551741e-01	-4.53968442e-01
0.051           	3.25339309e+00	1.39656522e-20	-9.09608352e-01	2.31896028e-21	-2.70267319e-03	4.36073287e-21	1.62669655e+00	1.62669655e+00	1.13435590e-20	2.62209325e-21	-4.57506849e-01	-4.52101503e-01
0.0515          	3.25341779e+00	1.39551451e-20	-9.05917249e-01	2.30881789e-21	-2.61306843e-03	4.35505322e-21	1.62670889e+00	1.62670889e+00	1.13326258e-20	2.62251933e-21	-4.55571693e-01	-4.50345556e-01
0.052           	3.25355769e+00	1.39661872e-20	-9.01061830e-01	2.29760269e-21	-2.52353405e-03	4.34823962e-21	1.62677884e+00	1.62677884e+00	1.13313332e-20	2.63485400e-21	-4.53054449e-01	-4.48007381e-01
0.0525          	3.25303934e+00	1.39497605e-20	-8.96549542e-01	2.28442960e-21	-2.43379273e-03	4.34056634e-21	1.62651967e+00	1.62651967e+00	1.13154466e-20	2.63431391e-21	-4.50708564e-01	-4.45840978e-01
0.053           	3.25210463e+00	1.39264684e-20	-8.91944567e-01	2.27108074e-21	-2.34380318e-03	4.33108696e-21	1.62605232e+00	1.62605232e+00	1.12943211e-20	2.63214722e-21	-4.48316087e-01	-4.43628480e-01
0.0535          	3.25338154e+00	1.39294160e-20	-8.89000430e-01	2.26442835e-21	-2.25361492e-03	4.32980005e-21	1.62669077e+00	1.62669077e+00	1.12945081e-20	2.63490797e-21	-4.46753830e-01	-4.42246600e-01
0.054           	3.25231587e+00	1.38970818e-20	-8.84049079e-01	2.24970486e-21	-2.16331092e-03	4.31907392e-21	1.62615793e+00	1.62615793e+00	1.12676148e-20	2.62946700e-21	-4.44187851e-01	-4.39861229e-01
0.0545          	3.25306204e+00	1.38864523e-20	-8.80201569e-01	2.24059086e-21	-2.07298981e-03	4.31432304e-21	1.62653102e+00	1.62653102e+00	1.12575492e-20	2.62890311e-21	-4.42173774e-01	-4.38027795e-01
0.055           	3.25190220e+00	1.38706253e-20	-8.75301107e-01	2.22618807e-21	-1.98287448e-03	4.30455993e-21	1.62595110e+00	1.62595110e+00	1.12398726e-20	2.63075274e-21	-4.39633428e-01	-4.35667679e-01
0.0555          	3.25150158e+00	1.38625483e-20	-8.69625061e-01	2.21121400e-21	-1.89230182e-03	4.29564778e-21	1.62575079e+00	1.62575079e+00	1.12269219e-20	2.63562636e-21	-4.36704832e-01	-4.32920229e-01
0.056           	3.25129801e+00	1.38603112e-20	-8.65669144e-01	2.20105195e-21	-1.80194963e-03	4.28956600e-21	1.62564900e+00	1.62564900e+00	1.12197216e-20	2.64058958e-21	-4.34636522e-01	-4.31032622e-01
0.0565          	3.25086947e+00	1.38474674e-20	-8.60198987e-01	2.18668732e-21	-1.71075087e-03	4.28030232e-21	1.62543474e+00	1.62543474e+00	1.12040360e-20	2.64343140e-21	-4.31810244e-01	-4.28388743e-01
0.057           	3.25167062e+00	1.38405884e-20	-8.56420613e-01	2.17759509e-21	-1.61956879e-03	4.27630278e-21	1.62583531e+00	1.62583531e+00	1.11965970e-20	2.64399144e-21	-4.29829876e-01	-4.26590738e-01
0.0575          	3.25206660e+00	1.38359358e-20	-8.50663550e-01	2.16421257e-21	-1.52869867e-03	4.26804192e-21	1.62603330e+00	1.62603330e+00	1.11860098e-20	2.64992596e-21	-4.26860474e-01	-4.23803076e-01
0.058           	3.25027752e+00	1.38191179e-20	-8.45926475e-01	2.14905449e-21	-1.43742205e-03	4.25788067e-21	1.62513876e+00	1.62513876e+00	1.11674396e-20	2.65167826e-21	-4.24400660e-01	-4.21525815e-01
0.0585          	3.24958044e+00	1.37815973e-20	-8.41138209e-01	2.13465143e-21	-1.34582368e-03	4.24857403e-21	1.62479022e+00	1.62479022e+00	1.11393727e-20	2.64222461e-21	-4.21914928e-01	-4.19223281e-01
0.059           	3.24925902e+00	1.37349855e-20	-8.36608751e-01	2.12098620e-21	-1.25462102e-03	4.23990579e-21	1.62462951e+00	1.62462951e+00	1.11073986e-20	2.62758698e-21	-4.19558996e-01	-4.17049754e-01
0.0595          	3.24894191e+00	1.37716795e-20	-8.30016967e-01	2.10612227e-21	-1.16340113e-03	4.23115761e-21	1.62447095e+00	1.62447095e+00	1.11169974e-20	2.65468214e-21	-4.16171884e-01	-4.13845082e-01
0.06            	3.24889738e+00	1.37614844e-20	-8.24577251e-01	2.09251220e-21	-1.07224617e-03	4.22276435e-21	1.62444869e+00	1.62444869e+00	1.11035065e-20	2.65797783e-21	-4.13360872e-01	-4.11216379e-01
0.0605          	3.24868395e+00	1.37495803e-20	-8.18128574e-01	2.07633250e-21	-9.81752036e-04	4.21239679e-21	1.62434197e+00	1.62434197e+00	1.10871869e-20	2.66239335e-21	-4.10046039e-01	-4.08082535e-01
0.061           	3.24836990e+00	1.37376612e-20	-8.14013495e-01	2.06520308e-21	-8.90280203e-04	4.20561903e-21	1.62418495e+00	1.62418495e+00	1.10744496e-20	2.66321154e-21	-4.07897028e-01	-4.06116467e-01
0.0615          	3.24846420e+00	1.37212767e-20	-8.08661378e-01	2.05135647e-21	-7.98450342e-04	4.19766062e-21	1.62423210e+00	1.62423210e+00	1.10582990e-20	2.66297774e-21	-4.05129140e-01	-4.03532239e-01
0.062           	3.24790957e+00	1.37149084e-20	-8.02580981e-01	2.03558277e-21	-7.06716516e-04	4.18765914e-21	1.62395478e+00	1.62395478e+00	1.10451133e-20	2.66979507e-21	-4.01997207e-01	-4.00583774e-01
0.0625          	3.24754646e+00	1.37030864e-20	-7.97237298e-01	2.02187117e-21	-6.14498053e-04	4.17883179e-21	1.62377323e+00	1.62377323e+00	1.10303750e-20	2.67271142e-21	-3.99233147e-01	-3.98004151e-01
0.063           	3.24686390e+00	1.36884345e-20	-7.90800674e-01	2.00478327e-21	-5.22442670e-04	4.16794764e-21	1.62343195e+00	1.62343195e+00	1.10121649e-20	2.67626961e-21	-3.95922780e-01	-3.94877894e-01
0.0635          	3.24804523e+00	1.36927229e-20	-7.85353496e-01	1.99345221e-21	-4.30554881e-04	4.16203885e-21	1.62402262e+00	1.62402262e+00	1.10084003e-20	2.68432262e-21	-3.93107303e-01	-3.92246193e-01
0.064           	3.24577501e+00	1.36617579e-20	-7.79473382e-01	1.97483703e-21	-3.38695679e-04	4.14902624e-21	1.62288751e+00	1.62288751e+00	1.09799052e-20	2.68185273e-21	-3.90075387e-01	-3.89397995e-01
0.0645          	3.24545945e+00	1.36372828e-20	-7.72907895e-01	1.95759205e-21	-2.46680729e-04	4.13837768e-21	1.62272973e+00	1.62272973e+00	1.09570191e-20	2.68026370e-21	-3.86700628e-01	-3.86207267e-01
0.065           	3.24493498e+00	1.36214383e-20	-7.67245218e-01	1.94259021e-21	-1.55581698e-04	4.12885207e-21	1.62246749e+00	1.62246749e+00	1.09395712e-20	2.68186706e-21	-3.83778191e-01	-3.83467027e-01
0.0655          	3.24469725e+00	1.36143397e-20	-7.61927653e-01	1.92947017e-21	-6.38697099e-05	4.12033914e-21	1.62234863e+00	1.62234863e+00	1.09275090e-20	2.68683069e-21	-3.81027696e-01	-3.80899957e-01
0.066           	3.24451691e+00	1.36093498e-20	-7.54637338e-01	1.91154589e-21	2.77903969e-05	4.10952040e-21	1.62225845e+00	1.62225845e+00	1.09141953e-20	2.69515449e-21	-3.77290879e-01	-3.77346459e-01
0.0665          	3.24363952e+00	1.35964700e-20	-7.49655173e-01	1.89814368e-21	1.19263435e-04	4.10043898e-21	1.62181976e+00	1.62181976e+00	1.08986740e-20	2.69779603e-21	-3.74708323e-01	-3.74946850e-01
0.067           	3.24348771e+00	1.35920034e-20	-7.42880590e-01	1.88160138e-21	2.10784953e-04	4.09036563e-21	1.62174385e+00	1.62174385e+00	1.08863673e-20	2.70563606e-21	-3.71229510e-01	-3.71651080e-01
0.0675          	3.24205690e+00	1.35597443e-20	-7.37078332e-01	1.86473538e-21	3.02267720e-04	4.07827807e-21	1.62102845e+00	1.62102845e+00	1.08581502e-20	2.70159408e-21	-3.68236898e-01	-3.68841434e-01
0.068           	3.24199324e+00	1.35591930e-20	-7.29626332e-01	1.84722423e-21	3.93654198e-04	4.06732022e-21	1.62099662e+00	1.62099662e+00	1.08469167e-20	2.71227627e-21	-3.64419512e-01	-3.65206820e-01
0.0685          	3.24150727e+00	1.35162655e-20	-7.24566131e-01	1.83239350e-21	4.84199784e-04	4.05802083e-21	1.62075363e+00	1.62075363e+00	1.08161536e-20	2.70011190e-21	-3.61798866e-01	-3.62767265e-01
0.069           	3.24102582e+00	1.35000287e-20	-7.17566213e-01	1.81457469e-21	5.75597592e-04	4.04636896e-21	1.62051291e+00	1.62051291e+00	1.07963833e-20	2.70364541e-21	-3.58207509e-01	-3.59358704e-01
0.0695          	3.24032439e+00	1.34673769e-20	-7.11066192e-01	1.79680808e-21	6.66876106e-04	4.03474990e-21	1.62016220e+00	1.62016220e+00	1.07684384e-20	2.69893856e-21	-3.54866220e-01	-3.56199972e-01
0.07            	3.24000304e+00	1.34918756e-20	-7.04595359e-01	1.78209211e-21	7.58116213e-04	4.02605596e-21	1.62000152e+00	1.62000152e+00	1.07719937e-20	2.71988183e-21	-3.51539563e-01	-3.53055796e-01
0.0705          	3.23942894e+00	1.34905427e-20	-6.97201345e-01	1.76399328e-21	8.49267799e-04	4.01429523e-21	1.61971447e+00	1.61971447e+00	1.07595666e-20	2.73097614e-21	-3.47751405e-01	-3.49449940e-01
0.071           	3.23932068e+00	1.34666452e-20	-6.90844236e-01	1.74792473e-21	9.40390375e-04	4.00416063e-21	1.61966034e+00	1.61966034e+00	1.07374832e-20	2.72916196e-21	-3.44481728e-01	-3.46362509e-01
0.0715          	3.23849878e+00	1.34377960e-20	-6.84748673e-01	1.73117461e-21	1.03115525e-03	3.99319526e-21	1.61924939e+00	1.61924939e+00	1.07120933e-20	2.72570275e-21	-3.41343181e-01	-3.43405492e-01
0.072           	3.23698225e+00	1.34230310e-20	-6.76088856e-01	1.70859122e-21	1.12138229e-03	3.97745739e-21	1.61849113e+00	1.61849113e+00	1.06889729e-20	2.73405809e-21	-3.36923046e-01	-3.39165810e-01
0.0725          	3.23707352e+00	1.34368774e-20	-6.70088162e-01	1.69489232e-21	1.21240814e-03	3.96999350e-21	1.61853676e+00	1.61853676e+00	1.06884322e-20	2.74844518e-21	-3.33831673e-01	-3.36256489e-01