# Probe 0 (0.075 0 0)
# Probe 1 (0.073860581 0.013023613 0)
# Probe 2 (0.070476947 0.025651511 0)
# Probe 3 (0.064951905 0.0375 0)
# Probe 4 (0.057453333 0.048209071 0)
# Probe 5 (0.048209071 0.057453333 0)
# Probe 6 (0.0375 0.064951905 0)
# Probe 7 (0.025651511 0.070476947 0)
# Probe 8 (0.013023613 0.073860581 0)
# Probe 9 (0 0.075 0)
# Probe 10 (-0.013023613 0.073860581 0)
# Probe 11 (-0.025651511 0.070476947 0)
# Probe 12 (-0.0375 0.064951905 0)
# Probe 13 (-0.048209071 0.057453333 0)
# Probe 14 (-0.057453333 0.048209071 0)
# Probe 15 (-0.064951905 0.0375 0)
# Probe 16 (-0.070476947 0.025651511 0)
# Probe 17 (-0.073860581 0.013023613 0)
# Probe 18 (-0.075 0 0)
# Probe 19 (-0.073860581 -0.013023613 0)
# Probe 20 (-0.070476947 -0.025651511 0)
# Probe 21 (-0.064951905 -0.0375 0)
# Probe 22 (-0.057453333 -0.048209071 0)
# Probe 23 (-0.048209071 -0.057453333 0)
# Probe 24 (-0.0375 -0.064951905 0)
# Probe 25 (-0.025651511 -0.070476947 0)
# Probe 26 (-0.013023613 -0.073860581 0)
# Probe 27 (0 -0.075 0)
# Probe 28 (0.013023613 -0.073860581 0)
# Probe 29 (0.025651511 -0.070476947 0)
# Probe 30 (0.0375 -0.064951905 0)
# Probe 31 (0.048209071 -0.057453333 0)
# Probe 32 (0.057453333 -0.048209071 0)
# Probe 33 (0.064951905 -0.0375 0)
# Probe 34 (0.070476947 -0.025651511 0)
# Probe 35 (0.073860581 -0.013023613 0)
# Probe 36 (0.1 0 0)
# Probe 37 (0.098480775 0.017364818 0)
# Probe 38 (0.093969262 0.034202014 0)
# Probe 39 (0.08660254 0.05 0)
# Probe 40 (0.076604444 0.064278761 0)
# Probe 41 (0.064278761 0.076604444 0)
# Probe 42 (0.05 0.08660254 0)
# Probe 43 (0.034202014 0.093969262 0)
# Probe 44 (0.017364818 0.098480775 0)
# Probe 45 (0 0.1 0)
# Probe 46 (-0.017364818 0.098480775 0)
# Probe 47 (-0.034202014 0.093969262 0)
# Probe 48 (-0.05 0.08660254 0)
# Probe 49 (-0.064278761 0.076604444 0)
# Probe 50 (-0.076604444 0.064278761 0)
# Probe 51 (-0.08660254 0.05 0)
# Probe 52 (-0.093969262 0.034202014 0)
# Probe 53 (-0.098480775 0.017364818 0)
# Probe 54 (-0.1 0 0)
# Probe 55 (-0.098480775 -0.017364818 0)
# Probe 56 (-0.093969262 -0.034202014 0)
# Probe 57 (-0.08660254 -0.05 0)
# Probe 58 (-0.076604444 -0.064278761 0)
# Probe 59 (-0.064278761 -0.076604444 0)
# Probe 60 (-0.05 -0.08660254 0)
# Probe 61 (-0.034202014 -0.093969262 0)
# Probe 62 (-0.017364818 -0.098480775 0)
# Probe 63 (0 -0.1 0)
# Probe 64 (0.017364818 -0.098480775 0)
# Probe 65 (0.034202014 -0.093969262 0)
# Probe 66 (0.05 -0.08660254 0)
# Probe 67 (0.064278761 -0.076604444 0)
# Probe 68 (0.076604444 -0.064278761 0)
# Probe 69 (0.08660254 -0.05 0)
# Probe 70 (0.093969262 -0.034202014 0)
# Probe 71 (0.098480775 -0.017364818 0)
# Probe 72 (-0.025 -0.15 0)
# Probe 73 (0 -0.15 0)
# Probe 74 (0.025 -0.15 0)
# Probe 75 (0.05 -0.15 0)
# Probe 76 (0.075 -0.15 0)
# Probe 77 (0.1 -0.15 0)
# Probe 78 (-0.025 -0.1 0)
# Probe 79 (0 -0.1 0)
# Probe 80 (0.025 -0.1 0)
# Probe 81 (0.05 -0.1 0)
# Probe 82 (0.075 -0.1 0)
# Probe 83 (0.1 -0.1 0)
# Probe 84 (0.075 -0.05 0)
# Probe 85 (0.1 -0.05 0)
# Probe 86 (0.075 0 0)
# Probe 87 (0.1 0 0)
# Probe 88 (0.075 0.05 0)
# Probe 89 (0.1 0.05 0)
# Probe 90 (-0.025 0.1 0)
# Probe 91 (0 0.1 0)
# Probe 92 (0.025 0.1 0)
# Probe 93 (0.05 0.1 0)
# Probe 94 (0.075 0.1 0)
# Probe 95 (0.1 0.1 0)
# Probe 96 (-0.025 0.15 0)
# Probe 97 (0 0.15 0)
# Probe 98 (0.025 0.15 0)
# Probe 99 (0.05 0.15 0)
# Probe 100 (0.075 0.15 0)
# Probe 101 (0.1 0.15 0)
# Probe 102 (0.15 -0.15 0)
# Probe 103 (0.2 -0.15 0)
# Probe 104 (0.25 -0.15 0)
# Probe 105 (0.3 -0.15 0)
# Probe 106 (0.35 -0.15 0)
# Probe 107 (0.4 -0.15 0)
# Probe 108 (0.45 -0.15 0)
# Probe 109 (0.15 -0.1 0)
# Probe 110 (0.2 -0.1 0)
# Probe 111 (0.25 -0.1 0)
# Probe 112 (0.3 -0.1 0)
# Probe 113 (0.35 -0.1 0)
# Probe 114 (0.4 -0.1 0)
# Probe 115 (0.45 -0.1 0)
# Probe 116 (0.15 -0.05 0)
# Probe 117 (0.2 -0.05 0)
# Probe 118 (0.25 -0.05 0)
# Probe 119 (0.3 -0.05 0)
# Probe 120 (0.35 -0.05 0)
# Probe 121 (0.4 -0.05 0)
# Probe 122 (0.45 -0.05 0)
# Probe 123 (0.15 0 0)
# Probe 124 (0.2 0 0)
# Probe 125 (0.25 0 0)
# Probe 126 (0.3 0 0)
# Probe 127 (0.35 0 0)
# Probe 128 (0.4 0 0)
# Probe 129 (0.45 0 0)
# Probe 130 (0.15 0.05 0)
# Probe 131 (0.2 0.05 0)
# Probe 132 (0.25 0.05 0)
# Probe 133 (0.3 0.05 0)
# Probe 134 (0.35 0.05 0)
# Probe 135 (0.4 0.05 0)
# Probe 136 (0.45 0.05 0)
# Probe 137 (0.15 0.1 0)
# Probe 138 (0.2 0.1 0)
# Probe 139 (0.25 0.1 0)
# Probe 140 (0.3 0.1 0)
# Probe 141 (0.35 0.1 0)
# Probe 142 (0.4 0.1 0)
# Probe 143 (0.45 0.1 0)
# Probe 144 (0.15 0.15 0)
# Probe 145 (0.2 0.15 0)
# Probe 146 (0.25 0.15 0)
# Probe 147 (0.3 0.15 0)
# Probe 148 (0.35 0.15 0)
# Probe 149 (0.4 0.15 0)
# Probe 150 (0.45 0.15 0)
#         Probe               0               1               2               3               4               5               6               7               8               9              10              11              12              13              14              15              16              17              18              19              20              21              22              23              24              25              26              27              28              29              30              31              32              33              34              35              36              37              38              39              40              41              42              43              44              45              46              47              48              49              50              51              52              53              54              55              56              57              58              59              60              61              62              63              64              65              66              67              68              69              70              71              72              73              74              75              76              77              78              79              80              81              82              83              84              85              86              87              88              89              90              91              92              93              94              95              96              97              98              99             100             101             102             103             104             105             106             107             108             109             110             111             112             113             114             115             116             117             118             119             120             121             122             123             124             125             126             127             128             129             130             131             132             133             134             135             136             137             138             139             140             141             142             143             144             145             146             147             148             149             150
#          Time
         0.0005     -0.43438053     -0.30597782     -0.23244449      -0.1695616     -0.15666062     -0.17409975     -0.21339207     -0.22782669     -0.18931253     -0.16924003     -0.11928827     0.036677816      0.22458187      0.48510494      0.78942057       1.1893597       1.4471844       1.6027498         1.68596       1.5771966       1.3458553       1.0614679      0.68418903      0.32281568    -0.036710209     -0.28449147     -0.42027765     -0.57212759     -0.62533557     -0.66332392     -0.68286991     -0.67836844     -0.69449785      -0.6959384     -0.66329135     -0.55437199     -0.48905572     -0.30479218     -0.17249666    -0.098901469    -0.078156866    -0.088810317    -0.027815693     0.045961093      0.10404421      0.17722644      0.26299471      0.33821325      0.48381273      0.61569666      0.82131129       1.0202522       1.1170729       1.2650273       1.2997775       1.2373385       1.1251046      0.92054572      0.70842445      0.49906411      0.33214413      0.18907334     0.071790947     -0.11210093     -0.23508284     -0.31163626     -0.44914534     -0.53594691     -0.73586521     -0.80175199     -0.81061306     -0.70688919      0.28945288      0.18564833      0.11188707     0.082442105     0.023720971    0.0014581629     0.080151087     -0.11210093     -0.25448418     -0.28340592       -0.272338     -0.24221272     -0.78558728     -0.80468557     -0.43438053     -0.48905572     -0.10488604     -0.13230581      0.31481039      0.17722644       0.1064503     0.055479753     0.035043732    0.0077097957      0.46019387      0.42360353      0.38618779      0.28907007      0.25030532      0.22406812      0.10343338      0.19265198      0.26805001      0.30659428      0.32843203      0.18348936      0.13311872     0.015812102      0.35047327      0.42109154      0.27260967      0.30117002      0.17148161     0.056769564     -0.10699226      0.38195702      0.41722906      0.41224445      0.02003148      0.04617208     0.091805417     -0.48622874     -0.59856208    -0.021383232     0.066095177     -0.12222391     -0.19051707     0.094445161     -0.48978467     -0.56441639      -0.1352269      0.10873152     0.068829563     0.060399391      0.17521417    -0.010272508     -0.05278013      0.02982467     0.044389638      0.14706915      0.17126381      0.27051371      0.14982482      0.10366811     0.048706615     0.054178658      0.10004435      0.21582051       0.3250321
          0.001     -0.50370258     -0.38720004     -0.30367985     -0.24333866     -0.22871703     -0.24692869     -0.28148056     -0.29460123     -0.25541468     -0.23836445     -0.18752163    -0.044527794      0.15648864      0.42289957      0.73433023       1.1325777       1.4047306       1.5668058       1.6475589       1.5395247        1.305451       1.0145634      0.62411829      0.25034714     -0.11493545     -0.36795232      -0.5029408     -0.65126316     -0.70216712     -0.73600427     -0.75645853     -0.75113116     -0.76339845     -0.76547477     -0.72990098     -0.62765123      -0.5661756     -0.36748204     -0.23940925     -0.16473667     -0.14844937     -0.14979184    -0.093596681    -0.016004424     0.042434128      0.11980732      0.19310391      0.27163826      0.41813166      0.55167576      0.76491763      0.96618688       1.0855965       1.2299015       1.2631605        1.203894       1.0910608      0.88357419       0.6253865      0.42763923      0.26400858     0.080069396    -0.022147492     -0.18895793     -0.31125354     -0.38387213     -0.52014675      -0.6065622     -0.79722066     -0.87763633     -0.88629269     -0.78177356      0.20150857      0.11190761     0.036002155    -0.002560514    -0.040066144    -0.031387451    -0.028408308     -0.18895793     -0.32984436     -0.34658646      -0.3382905      -0.3077968     -0.84761447     -0.87586081     -0.50370258      -0.5661756     -0.17524533     -0.18460888      0.24451891      0.11980732     0.045511732  -0.00093718857    -0.016683806    -0.023465069       0.4016911        0.349242      0.31330312      0.24910839      0.21662986      0.19760967     0.022284361      0.20328827      0.29600673       0.4222772      0.38242148      0.20248029      0.11145396    -0.020139166      0.26242556      0.40065176      0.37769539      0.30505174      0.19399026      0.10089529     -0.25551386      0.32316102      0.33112142      0.23094502    -0.042787181    0.0090486191     0.071021978     -0.52818407     -0.55864186    -0.050850542     0.051806353     -0.12351979     -0.19884417     0.049444358      -0.5281905     -0.59549325     -0.18231359     0.068335618     0.043179957     0.011651011      0.13751823    -0.081079833    -0.085542175    -0.018581935     0.052650173        0.102654       0.1616109      0.26391619      0.12239293     0.085891119     0.040420201     0.026704856     0.082066781      0.20025098      0.30724091
         0.0015      -0.5027248     -0.37843611     -0.28883732     -0.22300279     -0.20565409     -0.22257373     -0.25473958     -0.27270391     -0.23609061     -0.21885104     -0.16966406    -0.026039453      0.17225147       0.4375829      0.74729356       1.1438095       1.4128654       1.5716879       1.6497281       1.5390012       1.3039627       1.0119946      0.62308864      0.25048111     -0.11276069     -0.36556466      -0.5020032     -0.65391107     -0.70943917     -0.74558374     -0.76448266     -0.75700952     -0.76949967      -0.7719836     -0.73535072      -0.6280127     -0.56220649     -0.35671434     -0.22513314     -0.14664817      -0.1283962     -0.12968844    -0.074285542    0.0020714034     0.059860558       0.1368902      0.20962004      0.28764387       0.4328088      0.56498443      0.77670734      0.97533711       1.0931968       1.2351088        1.266646       1.2053914        1.091088      0.88297904      0.62527128      0.42814626      0.26449713      0.08119412    -0.021250131     -0.19022395      -0.3140282     -0.38795198     -0.52578544     -0.61265915     -0.80305726     -0.88261349     -0.88379296     -0.78283692      0.20175297        0.112335     0.035902092   -0.0035926717    -0.041271942    -0.032851572      -0.0276367     -0.19022395     -0.33312964     -0.35029234     -0.34275697     -0.31296982     -0.85279419     -0.88167245      -0.5027248     -0.56220649     -0.15587288     -0.16768865      0.26069743       0.1368902     0.063024948     0.016867779   0.00066642024   -0.0070975822      0.41660819      0.36453346      0.32898241      0.26407057      0.23132136      0.21157213     0.029231854      0.20173404       0.3150186      0.41420066      0.37653635      0.20409477       0.1150983    -0.024822972      0.27147327      0.40569927      0.37740082      0.30471985       0.1947882      0.10066533     -0.26157215       0.3242311      0.33016201      0.23693501    -0.036006372    0.0070386317     0.068694716     -0.52218933     -0.56997264    -0.054605323     0.053664474     -0.11992158     -0.20250518     0.046642834     -0.50949167     -0.58493716     -0.17960512     0.070686798     0.046565719     0.011738281      0.13668303    -0.067147938    -0.073927204    -0.011489145     0.056753913       0.1049561      0.16276879      0.26506188      0.13482304     0.096098297     0.048036351     0.031192553     0.084150916      0.20222763      0.30934131
          0.002     -0.49779861     -0.37389334     -0.28488986     -0.22055199     -0.20492308     -0.22281758     -0.25575849     -0.27389936     -0.23737538     -0.21945343      -0.1700406    -0.025403339      0.17206873      0.43661035      0.74562368         1.14248       1.4108628       1.5699297       1.6491203       1.5388759       1.3042484       1.0129389      0.62486938      0.25291993      -0.1103982     -0.36316458     -0.49816822     -0.65029605     -0.70383736     -0.74057843     -0.76037012     -0.75275825     -0.76558184     -0.76848697     -0.73293524      -0.6271173     -0.55957567      -0.3536375     -0.22127128     -0.14345809     -0.12590669     -0.12887516    -0.073788094    0.0012333504     0.058897352      0.13583696      0.20877692      0.28699259      0.43239343       0.5646067      0.77593412      0.97440493       1.0921915       1.2338172       1.2657192        1.204895       1.0909068      0.88293496      0.62654995      0.42978193      0.26632549     0.084690538    -0.016959157      -0.1865087     -0.30996949     -0.38407806     -0.52248415     -0.60971844     -0.80091295     -0.88107473     -0.87962674     -0.78158713      0.20511259      0.11634107     0.039912909   0.00034487662    -0.038093023    -0.030158231    -0.023458422      -0.1865087     -0.32910735     -0.34682949     -0.33986995     -0.31129472     -0.85052115     -0.88225165     -0.49779861     -0.55957567     -0.15351656     -0.16393475      0.25994254      0.13583696     0.062148595     0.016482579     0.001141038   -0.0066634915      0.41561489       0.3637556      0.32771423      0.26259979      0.22982629      0.21002553     0.034246691      0.20281524      0.31414391      0.40390301      0.37110113      0.20561648      0.11921058    -0.023379361      0.27841681      0.41010671      0.37684228      0.30256108      0.19587535      0.10072314     -0.26444816      0.32811968       0.3393811      0.25528689    -0.025808252    0.0076444965     0.069408656     -0.51597689     -0.55697762    -0.055058525     0.060987705     -0.10913768     -0.20255629      0.04693613     -0.50516415     -0.59113987     -0.18475377     0.070318931     0.048734244     0.010866872      0.13605115    -0.068316106    -0.075977802    -0.013962366     0.054932906      0.10371739      0.16131655       0.2635821      0.13322893     0.094748491     0.047186773     0.030082439     0.082791327      0.19972795      0.30496035
         0.0025      -0.4989192     -0.37445723     -0.28362816     -0.21924691      -0.2035531     -0.22133391     -0.25474799      -0.2722016     -0.23579762     -0.21776644     -0.16833788    -0.023153833      0.17391002      0.43827254      0.74683769       1.1437894       1.4114103        1.569938       1.6487189       1.5378763       1.3028205       1.0114597      0.62334812      0.25146379       -0.111544     -0.36430084     -0.49921865     -0.65151955     -0.70463618     -0.74136262     -0.76083498     -0.75277133     -0.76560259     -0.76903041     -0.73501455     -0.62930231      -0.5610589      -0.3529275      -0.2192224     -0.14121436     -0.12379583     -0.12745922    -0.072304932    0.0022026452     0.059869783      0.13671508      0.20988263      0.28820223      0.43374294      0.56577933      0.77698659       0.9749655       1.0924496       1.2335322       1.2650871       1.2038812       1.0895518      0.88121601      0.62541442      0.42867014      0.26517645     0.084423419    -0.016972966     -0.18723279     -0.31051743     -0.38459431      -0.5230864     -0.61032786     -0.80165049     -0.88205365     -0.88206494     -0.78465626       0.2047766       0.1162018     0.039764146   0.00015060502    -0.038730273    -0.031198378    -0.023555621     -0.18723279     -0.32962551     -0.34742563     -0.34057803     -0.31259954     -0.85102718     -0.88555893      -0.4989192      -0.5610589      -0.1518328     -0.16084916       0.2610575      0.13671508     0.063069377     0.017322036    0.0022612928   -0.0057544717      0.41622764      0.36448819      0.32799584      0.26248271      0.22952779      0.20958962     0.032883365      0.20130242      0.30979936        0.397881      0.36819388      0.20686913       0.1221925     -0.02462022      0.28008301      0.41112035      0.37701892      0.30145688       0.1967127      0.10072191     -0.26897952      0.33138644      0.34216997      0.26463439    -0.019377707    0.0070855933     0.069664669     -0.51467452     -0.55963346     -0.05535568     0.065445331     -0.10128279     -0.20408027     0.046526582     -0.50115887     -0.59503239     -0.18866488     0.069607261     0.049868295    0.0088688312      0.13430907     -0.06871092    -0.077218907    -0.015736474     0.053534493      0.10229833      0.15921008      0.26129393      0.13240698     0.093907616     0.046433545     0.029302467     0.081321909      0.19688409      0.30093185
          0.003     -0.49661475     -0.36991007     -0.28145146     -0.21763244     -0.20232353     -0.22017275     -0.25313077     -0.27105979     -0.23457525      -0.2161086     -0.16666487    -0.021120358       0.1758442      0.44011185      0.74833957       1.1453717       1.4126924       1.5711483       1.6500455       1.5392434       1.3042291       1.0131459       0.6251492      0.25340293     -0.10943897     -0.36214464     -0.49691598     -0.64914074     -0.70212329     -0.73860249     -0.75800019     -0.74961499     -0.76229162     -0.76576402     -0.73173532     -0.62666507     -0.56045859     -0.35088381     -0.21660868     -0.13862704     -0.12148698     -0.12594435    -0.070887833    0.0032581124     0.060906531      0.13763983      0.21109184      0.28955485      0.43529197      0.56715592      0.77850464      0.97621143       1.0936185       1.2346836       1.2662691        1.205119       1.0908348      0.88246465      0.62725669      0.43067248      0.26720878     0.087173071    -0.014062615     -0.18474526     -0.30787961     -0.38200734      -0.5206408     -0.60807452     -0.79972698     -0.88079588     -0.88234527     -0.78528495      0.20731882       0.1188684     0.042430684    0.0027335385    -0.036552403    -0.029426845    -0.020699573     -0.18474526     -0.32699458     -0.34507924     -0.33862778     -0.31157084     -0.84892231     -0.88647269     -0.49661475     -0.56045859     -0.14994928     -0.15720026      0.26231293      0.13763983     0.064119201     0.018470266    0.0039688353   -0.0037567587      0.41731851      0.36570734      0.32891814      0.26322403      0.23032496       0.2105319     0.035713093       0.2011461      0.30587784      0.39529013      0.36726694      0.20825169      0.12424606    -0.024371665      0.28106456      0.41197278      0.37765839      0.30144586      0.19776127      0.10064922     -0.26704832      0.33461119      0.34221576      0.27052474    -0.014273666    0.0060582741     0.069505565     -0.51104412     -0.55617564    -0.057051405     0.068763588    -0.094788917     -0.20643104     0.045560455      -0.4948132     -0.59370018     -0.19058074     0.069716724     0.051667761    0.0076930282      0.13296211    -0.066868608    -0.075758607    -0.015217504     0.053740676      0.10227114      0.15869528       0.2607677      0.13363043     0.095308372     0.047762603     0.030309748     0.081593164      0.19634328       0.2999682
         0.0035      -0.4968539     -0.36912221      -0.2798389     -0.21579471     -0.20055649     -0.21833311     -0.25123942      -0.2689251     -0.23242504     -0.21386536      -0.1643873    -0.018759812        0.178091      0.44230337      0.75020853       1.1471406       1.4140816       1.5722212       1.6507937       1.5395871       1.3042722       1.0131274      0.62502491      0.25328211     -0.10949488     -0.36218024      -0.4969132      -0.6490882     -0.70191964      -0.7382897     -0.75754445     -0.74887161     -0.76143153     -0.76519377     -0.73202387     -0.62713579     -0.56100199      -0.3491234     -0.21367904     -0.13565038     -0.11874267     -0.12374973    -0.068735129    0.0051475058     0.062744667      0.13931738      0.21291732      0.29137246      0.43714342       0.5687516      0.78012573      0.97741855        1.094597        1.235544       1.2668832       1.2054649       1.0909557      0.88234388      0.62739513       0.4308411      0.26731949     0.087713767    -0.013517881     -0.18455599     -0.30762175     -0.38176093     -0.52044626     -0.60801622     -0.79978385     -0.88126489     -0.88389681     -0.78727096      0.20766727      0.11921178     0.042699628     0.002840283    -0.036884535    -0.030233875    -0.020189569     -0.18455599     -0.32673292      -0.3450262     -0.33889739     -0.31255032     -0.84879071     -0.88884545      -0.4968539     -0.56100199     -0.14767297     -0.15312028      0.26410722      0.13931738      0.06595795     0.020402795     0.006322183   -0.0010991267      0.41887528      0.36744832      0.33044227      0.26463714      0.23180014      0.21213955     0.034256866      0.19869061      0.30614403      0.39293071      0.36678107      0.20995316       0.1264878     -0.02634552      0.27877445      0.41180654      0.37768017      0.30169254      0.19917151      0.10151538     -0.26988644       0.3326621       0.3416142      0.27479649   -0.0098606204    0.0052348223     0.070069709     -0.50933919     -0.55504702     -0.05918433     0.071290052    -0.089273318     -0.20878679     0.045128848     -0.48734938     -0.59189922     -0.19251899     0.069271485      0.05243305    0.0055546315      0.13077766    -0.064215405     -0.07390973    -0.014804982     0.053326292      0.10105593       0.1567525      0.25812293      0.13534382     0.096883512     0.048813544     0.030498603     0.080534267      0.19401203      0.29655369
          0.004     -0.49471813     -0.36680231     -0.27748307     -0.21333543     -0.19843872     -0.21633975     -0.24932147     -0.26676456     -0.23022244     -0.21153206     -0.16191939    -0.016136386      0.18073072      0.44494831      0.75263676       1.1495318       1.4162932       1.5743003       1.6527722       1.5414354       1.3060345       1.0149397      0.62684085      0.25515274     -0.10757943     -0.36019729     -0.49484535     -0.64691136     -0.69961479     -0.73583309     -0.75484301     -0.74578755     -0.75806253     -0.76196723     -0.72954579     -0.62497809     -0.55893127     -0.34536375     -0.20932142     -0.13189122     -0.11552408     -0.12125089    -0.066399234    0.0072578689      0.06481747      0.14130211      0.21506624      0.29356627      0.43942738      0.57088123      0.78235654      0.97939217       1.0964705       1.2374944        1.268772       1.2072871       1.0927288      0.88403463      0.62937229      0.43290474      0.26938353     0.090142109    -0.011098486     -0.18230944     -0.30528088     -0.37939402       -0.518027     -0.60564242     -0.79728834     -0.87893618     -0.88278643     -0.78630472      0.20991388      0.12146616     0.044897214     0.004863725     -0.03531076     -0.02916876    -0.017796234     -0.18230944     -0.32437716      -0.3428359     -0.33703819     -0.31145905     -0.84597841     -0.88791645     -0.49471813     -0.55893127     -0.14474443     -0.14818738      0.26625612      0.14130211     0.068029612     0.022591283    0.0089025922    0.0016839696      0.42083304      0.36949736      0.33228501       0.2663317      0.23350391      0.21389694     0.034295784       0.1977203      0.30526161      0.39226108      0.36737989      0.21181517       0.1282772    -0.027108004      0.27758108      0.41243424      0.37851081       0.3026328      0.20077347       0.1020548     -0.28322855        0.331362      0.34194572      0.27893817   -0.0053660209    0.0042372348     0.070118068     -0.50323611     -0.55109971    -0.060651741     0.073966229    -0.083888566     -0.21119851     0.044009936     -0.48105331     -0.59231915     -0.19462707     0.069008486     0.053510447    0.0037931608      0.12875139    -0.061848785     -0.07290815    -0.014749915     0.053169114      0.10042116      0.15571862      0.25689651      0.13687889     0.098237295     0.049856219     0.031023598     0.080230457      0.19315538      0.29556789
         0.0045     -0.49566272     -0.36709279     -0.27645958     -0.21271195     -0.19812099     -0.21597546     -0.24869116     -0.26613968     -0.22954177     -0.21072858     -0.16107772    -0.015234284      0.18162015      0.44583577      0.75333689       1.1501409       1.4166976       1.5745325       1.6524611       1.5409247       1.3053411       1.0141721      0.62602799      0.25437843     -0.10834274       -0.360883     -0.49547144     -0.64748045     -0.70008366     -0.73620593     -0.75505541     -0.74576782     -0.75789997     -0.76203871     -0.73020706     -0.62620829     -0.56113709     -0.34564496     -0.20873488     -0.13086376     -0.11457629     -0.12063497    -0.065867285    0.0076791805     0.065248579      0.14166855      0.21554133      0.29406009      0.43995494      0.57125194      0.78276425      0.97951303       1.0964789       1.2374766       1.2685488       1.2068528       1.0921476      0.88331085      0.62881025      0.43241512      0.26888834     0.089904015    -0.011374375     -0.18270055      -0.3056335     -0.37975375     -0.51841476     -0.60617957     -0.79807247     -0.88017608     -0.88462672     -0.78937488      0.20964127      0.12122342     0.044626584    0.0045203786    -0.035913234    -0.030086903    -0.018098387     -0.18270055     -0.32472065     -0.34331609     -0.33780876     -0.31285424     -0.84652357     -0.89133999     -0.49566272     -0.56113709     -0.14424141     -0.14596675      0.26671887      0.14166855     0.068432066     0.023067354    0.0096848146    0.0027525187      0.42109134      0.36985569      0.33248935      0.26644997      0.23368935      0.21421919     0.033003716      0.19606875      0.30352013      0.39170112      0.36792941        0.213292      0.12944285    -0.029206234      0.27588271      0.41255701      0.37895061      0.30335178      0.20204184      0.10217814     -0.28745785       0.3308826      0.34183784      0.28216142   -0.0013983512    0.0027457599     0.069679082     -0.50402585     -0.54679763    -0.062500235     0.076051771    -0.079306759     -0.21411854     0.042353622     -0.47711244     -0.59229296     -0.19694742     0.068370192     0.054186096    0.0016950577      0.12629905    -0.060738959     -0.07256704    -0.015077784      0.05266439     0.099475364      0.15445488      0.25557979      0.13735196     0.098850422     0.050367064     0.031116187      0.07961142      0.19220429      0.29483277