/*--------------------------------*- C++ -*----------------------------------*\
| =========                 |                                                 |
| \\      /  F ield         | OpenFOAM: The Open Source CFD Toolbox           |
|  \\    /   O peration     | Version:  2112                                  |
|   \\  /    A nd           | Website:  www.openfoam.com                      |
|    \\/     M anipulation  |                                                 |
\*---------------------------------------------------------------------------*/
FoamFile
{
    version     2.0;
    format      ascii;
    arch        "LSB;label=32;scalar=64";
    class       volScalarField;
    location    "0.335";
    object      p;
}
// * * * * * * * * * * * * * * * * * * * * * * * * * * * * * * * * * * * * * //

dimensions      [0 2 -2 0 0 0 0];

internalField   nonuniform List<scalar> 
16200
(
0.0045810668
-0.0068094692
-0.0065909702
-0.014907509
-0.015651731
-0.006488523
-0.01869049
-0.01841711
-0.022001329
0.0016716235
-0.023719494
-0.012800348
-0.028561004
-0.027992544
-0.026098343
-0.014424809
-0.033439521
-0.031848714
-0.029630149
-0.027122225
-0.030092776
-0.0064121712
-0.04364811
-0.038113294
-0.032267088
-0.027134769
-0.034242432
-0.013645228
-0.04352289
-0.048360036
-0.036541257
-0.030065902
-0.024434348
-0.04690958
-0.028067236
-0.0066346748
-0.04910009
-0.059691393
-0.03887643
-0.029078414
-0.021463665
-0.04784548
-0.03750427
-0.01655144
-0.055802205
-0.04415087
-0.066060664
-0.033031004
-0.023515407
-0.015626598
-0.057397803
-0.033843298
-0.0083176054
-0.059222018
-0.044976376
-0.072536642
-0.069940421
-0.031170376
-0.019079063
-0.0099154308
-0.056320181
-0.044929762
-0.020669216
-0.065300307
-0.05027537
-0.035579642
-0.076381488
-0.073103813
-0.022154821
-0.011013173
-0.0016965568
-0.066565643
-0.039235841
-0.010945572
-0.064988823
-0.048237015
-0.031677466
-0.080990333
-0.079749252
-0.016620221
-0.0037025051
0.0060093624
-0.065354925
-0.049507204
-0.023124837
-0.072340604
-0.054050082
-0.036012068
-0.019637353
-0.083513629
-0.087368685
-0.0057063435
0.0060000872
0.015807128
-0.075655201
-0.043402256
-0.011833298
-0.066712276
-0.048559963
-0.029571809
-0.012324421
-0.087075083
-0.089967559
-0.081151069
0.0026133964
0.015286946
0.024688038
-0.072809156
-0.052524287
-0.023826703
-0.054019691
-0.069686413
-0.03410979
-0.01517048
0.0010072419
-0.08071775
-0.084311407
-0.076687808
0.014372646
0.025697083
0.035215009
-0.072468676
-0.044339595
-0.012138995
-0.044606351
-0.061153318
-0.024729279
-0.0057839628
0.010600779
-0.079528958
-0.076148836
-0.081369492
-0.069768102
0.024431584
0.035987338
0.044452051
-0.057251206
-0.044546327
-0.017648302
-0.028815841
-0.047019131
-0.06006811
-0.0087422518
0.0092592909
0.024139271
-0.068608928
-0.067536215
-0.068218178
-0.062867317
0.036127832
0.046322476
0.05481118
-0.05436296
-0.034354048
-0.0095016346
-0.017260816
-0.036228507
-0.049530518
0.0024825659
0.020138558
0.034901424
-0.060859793
-0.055299484
-0.061740726
-0.050588318
0.04692414
0.0566739
0.06365141
-0.045211265
-0.031467602
-0.010541759
-0.00055800356
-0.020406069
-0.037500383
-0.046950151
0.018597584
0.034891711
0.047808899
-0.047658689
-0.044807354
-0.041522027
-0.044416353
0.05778468
0.066172979
0.07302278
-0.03669221
-0.022799857
-0.0060479061
0.011261181
-0.0083962159
-0.024922503
-0.033368403
0.030158491
0.046175014
0.058786954
-0.033517591
-0.024558158
-0.041682522
-0.026048479
-0.033922377
0.068413317
0.075753446
0.080826278
-0.025111686
-0.014906466
-0.0026569122
0.028022062
0.0080065617
-0.011813513
-0.026294171
-0.031127792
0.045863592
0.059940002
0.070353369
-0.017311075
-0.0065922089
-0.020785595
-0.0055877192
-0.023910726
0.077740904
0.083716047
0.088504242
-0.010585511
-0.0064838419
-0.0014229462
0.039260182
0.019616809
0.00055914767
-0.013404121
-0.021017123
0.056789675
0.070711145
0.080713987
-0.001990304
0.011136005
-0.011838534
0.0044945708
-0.016633711
0.087388244
0.091802932
0.094629311
0.0015044249
0.0052181566
0.0052423342
0.05551874
0.035302202
0.013355845
-0.00510332
-0.017427368
-0.017225962
0.071515273
0.082951965
0.090263431
0.014087505
0.028375068
-0.0029698762
0.010633019
-0.0088837749
0.094543274
0.097559655
0.099922841
0.018440898
0.0072589432
0.004114812
0.066135873
0.045875732
0.023556201
0.0035416653
-0.0095909592
-0.013107882
0.08171556
0.092499139
0.099205826
0.030922175
0.039901111
0.0096200621
0.031476134
0.016948101
-0.0055668083
0.10245516
0.10349419
0.10387009
0.030655628
0.011384482
0.010866582
0.080069078
0.059789321
0.036670528
0.014482655
-0.0034855036
-0.011943211
-0.010336532
0.094262941
0.1024699
0.10618791
0.042177273
0.049771048
0.0083556736
0.039215467
0.025541239
-0.00039786225
0.1068516
0.10646146
0.10614122
0.028757653
0.042948636
0.018568751
0.0053239594
0.090078615
0.069051753
0.043507654
0.017598039
-0.0032830458
-0.012612681
-0.013515353
0.10386744
0.11082789
0.11311359
0.053060777
0.056551208
0.016785733
0.049068671
0.028355346
-0.0038391546
0.11234649
0.10980204
0.10753463
0.030979692
0.049607877
0.031375118
0.014595808
0.099979524
0.081614989
0.057872776
0.031256109
0.0070374634
-0.0089229918
-0.016701182
-0.013379359
0.11196812
0.11715101
0.11683649
0.062294228
0.064922291
0.013419312
0.050325399
0.03684574
0.00033939589
0.1136308
0.10985198
0.10655851
0.044740673
0.063209454
0.029004101
0.0059094165
0.10850796
0.087925674
0.060793626
0.030925827
0.0036656161
-0.015660295
-0.024962696
-0.022534527
0.12045046
0.12414466
0.12160685
0.070731601
0.065625277
0.018852917
0.05682807
0.03304003
-0.0090340784
0.11598538
0.11024502
0.1051697
0.046264245
0.063509491
0.036801757
0.01740683
0.11552473
0.10006935
0.076213804
0.046358165
0.015789939
-0.0098812966
-0.026889342
-0.030003993
-0.022697334
0.12314756
0.12501903
0.12111752
0.070071113
0.069704118
0.010091046
0.05310158
0.039799715
-0.005759581
0.11391354
0.10695648
0.10083325
0.054341415
0.07104934
0.031895549
0.0056187471
0.11966801
0.10164349
0.074657982
0.041791959
0.0087689299
-0.019369252
-0.038083149
-0.042789952
-0.0359321
0.12881321
0.13043966
0.1232067
0.071218877
0.066256637
0.015311028
0.057466295
0.031425565
-0.018806293
0.11339297
0.10403235
0.096440082
0.051838011
0.067938387
0.03497641
0.017239462
0.12407844
0.11203555
0.089453626
0.058152298
0.022865165
-0.010449445
-0.03618836
-0.049007804
-0.048044393
-0.035221181
0.12664408
0.12458761
0.11689379
0.076809956
0.067277827
0.0030638476
0.049383192
0.035857735
-0.014888295
0.10720327
0.09760908
0.088953202
0.058720388
0.061990722
0.028523676
0.0056679186
0.1231945
0.10935769
0.084639772
0.050529178
0.013163928
-0.022627719
-0.049652905
-0.062914805
-0.062643434
-0.050047699
0.12744428
0.12510639
0.11591338
0.074810039
0.071191381
0.059362945
0.007768989
0.051110377
0.024559043
-0.029155526
0.10348678
0.091474238
0.082172486
0.053729912
0.063637964
0.030877414
0.018379606
0.12427986
0.11615185
0.096745087
0.066445393
0.02912047
-0.0098411574
-0.04262356
-0.06533292
-0.072580843
-0.065093822
-0.047315347
0.12302545
0.11569866
0.10512063
0.065277184
0.068124505
0.059062679
-0.0057403669
0.040553255
0.027627557
-0.024235879
0.093606778
0.082388756
0.072052976
0.046123439
0.063101745
0.057049917
0.031379524
0.0051920678
0.11767617
0.10872694
0.088346244
0.056973833
0.018139532
-0.022250687
-0.056960544
-0.079780762
-0.086597738
-0.07930711
-0.061420031
0.11755357
0.11109142
0.10021338
0.064781634
0.060990767
0.048479638
-0.00096530122
0.04127347
0.015288915
-0.037834567
0.086652193
0.073377426
0.063239831
0.035421813
0.060602765
0.048660234
0.018025586
0.11409474
0.11029722
0.09598161
0.070217022
0.034320674
-0.0071518814
-0.045872987
-0.076777306
-0.092139437
-0.091400251
-0.077764217
-0.056038007
0.10933574
0.098870698
0.086302412
0.063034213
0.059439018
0.048204524
-0.01396681
0.029061239
0.017711762
-0.03166596
0.073972563
0.062286825
0.051387909
0.031448403
0.060640508
0.053154538
0.040738673
0.012874784
0.10138133
0.09777254
0.084070898
0.058753456
0.022376897
-0.018397191
-0.058356597
-0.089613633
-0.10424974
-0.10309101
-0.08944465
-0.067541214
0.097438129
0.088372222
0.076974459
0.059079627
0.051144227
0.036857815
-0.0092830206
0.030234856
0.0050535487
-0.043187295
0.063975337
0.0511501
0.041363184
0.055565369
0.049078082
0.036566049
0.0096110404
0.026959797
0.092881318
0.093809504
0.085768389
0.067078361
0.036691748
-0.0023165438
-0.043650458
-0.080675308
-0.10417989
-0.11044549
-0.10211522
-0.083514211
-0.059995414
0.085651575
0.074386088
0.06177085
0.05536098
0.048747031
0.036152184
-0.020847933
0.017597151
0.0077543173
-0.036346084
0.049980374
0.039174317
0.02901873
0.051490538
0.054619106
0.042715261
0.00026071645
0.025062427
0.074982819
0.076613741
0.070243238
0.053806088
0.024091919
-0.011905241
-0.053548811
-0.089074297
-0.11122527
-0.11730313
-0.10919137
-0.090941047
-0.067994066
0.06823985
0.058834799
0.0483535
0.050875351
0.041140686
0.026232105
-0.016503208
0.018667364
-0.0045362613
-0.045418277
0.037566336
0.026954768
0.018894766
0.048336956
0.051106363
0.039567438
0.01585231
0.032424045
0.06236165
0.067187567
0.06600795
0.055892819
0.034392833
0.0025661869
-0.036609452
-0.074668514
-0.10429245
-0.11821406
-0.11658233
-0.10285422
-0.082181427
-0.05971323
0.054205449
0.044145776
0.033588875
0.047860649
0.038985365
0.025331711
-0.026819536
0.0077007443
-0.0017538437
-0.03925473
0.024053402
0.015540891
0.007497566
0.049333666
0.043730201
0.049124565
0.0103205
0.030546976
0.04058433
0.046496568
0.047603055
0.040376859
0.022324189
-0.0054744149
-0.044067486
-0.07821242
-0.1052338
-0.11802817
-0.11685298
-0.10428381
-0.085102178
-0.064555513
0.03286546
0.0250123
0.017479388
0.043131976
0.032009826
0.016775991
-0.022516927
0.0082868168
-0.012241407
-0.04615181
0.010391596
0.0035862227
-0.0015003931
0.047348283
0.041679484
0.047475701
0.016471537
0.025152073
0.036901341
0.025369194
0.032679181
0.03757202
0.03667618
0.025629204
0.0057815258
-0.026332902
-0.060444861
-0.092546774
-0.11208326
-0.11761967
-0.11052007
-0.094925167
-0.075811879
-0.057095962
0.018025934
0.011416224
0.0048168149
0.042060287
0.031817985
0.017570241
-0.030940634
-0.00082691006
-0.010150144
-0.040622792
-0.00079922042
-0.0056890635
-0.01039348
0.044659018
0.047371132
0.044603255
0.0016673833
0.0099638235
0.017632037
0.02069914
0.014070358
-0.0016021257
-0.029643856
-0.059768264
-0.087209384
-0.10472035
-0.11043041
-0.10491455
-0.091669385
-0.075314266
-0.059519563
-0.004926142
-0.009105627
-0.012072934
0.036474779
0.024028727
0.0084613932
-0.027535549
0.0009726787
-0.018590996
-0.045634076
-0.014039758
-0.015862964
-0.017033771
-0.013473836
-0.0060070222
0.0029235759
0.01055378
0.012465974
0.0042198048
-0.015995316
-0.041303414
-0.070504837
-0.092723954
-0.10430699
-0.10452785
-0.095801152
-0.082159055
-0.067277383
-0.053187254
-0.018251488
-0.020331101
-0.02103715
-0.033998842
-0.008382919
-0.015909551
-0.041275684
-0.021348601
-0.021544098
-0.021983423
-0.036410675
-0.028307163
-0.016953726
-0.0057079982
0.00085110222
-0.00079175554
-0.015162031
-0.037737856
-0.061008701
-0.079767852
-0.090687353
-0.0922315
-0.086153366
-0.075854147
-0.064583879
-0.053912041
-0.039930883
-0.039256072
-0.03621861
-0.03071557
-0.02419848
-0.044649168
-0.032282575
-0.028422683
-0.025229134
-0.049367002
-0.043563014
-0.032967636
-0.020174309
-0.008461242
-0.0019289289
-0.0072034102
-0.020742246
-0.043162241
-0.064187497
-0.078941835
-0.085451532
-0.084148233
-0.077371875
-0.067999776
-0.058060315
-0.049051563
-0.049738952
-0.045940245
-0.040298379
-0.036698743
-0.041125342
-0.034594591
-0.029464784
-0.025123586
-0.069482073
-0.063297336
-0.050516577
-0.033707733
-0.016419115
-0.0055525125
-0.0053354911
-0.016437644
-0.031276511
-0.047361686
-0.060650485
-0.067978785
-0.069081106
-0.065752116
-0.060360118
-0.054217496
-0.048615776
-0.068345925
-0.06142079
-0.051779291
-0.043707902
-0.041650337
-0.032105141
-0.024431196
-0.078723441
-0.076190029
-0.065407372
-0.048779341
-0.029717972
-0.013399435
-0.0037817591
-0.0038894235
-0.01325876
-0.030274168
-0.04556617
-0.056152179
-0.061402033
-0.061701256
-0.058925008
-0.054320251
-0.049450184
-0.045335883
-0.073116441
-0.062279476
-0.050118915
-0.038333561
-0.028176608
-0.019362521
-0.094198621
-0.091659669
-0.078978691
-0.059308467
-0.036198196
-0.015096001
0.002051144
0.0037876608
-0.0018340791
-0.012173229
-0.024649665
-0.035307396
-0.042395097
-0.045827217
-0.046809754
-0.04613877
-0.045068512
-0.043926929
-0.086814964
-0.07265668
-0.056463397
-0.040369369
-0.025825679
-0.01429895
-0.097832388
-0.10080606
-0.092183378
-0.073910768
-0.049909374
-0.025751456
-0.0041365874
0.0069733891
0.011017315
0.004357615
-0.008268846
-0.020221883
-0.030154172
-0.036910595
-0.040598007
-0.041897185
-0.041884041
-0.042348841
-0.08489035
-0.066673375
-0.048435992
-0.03148547
-0.017052644
-0.0047712873
-0.10705717
-0.11049611
-0.10025492
-0.078946025
-0.05115478
-0.022379392
0.0026238817
0.019170298
0.024260918
0.020894751
0.012587929
0.0011749918
-0.0096008317
-0.018502508
-0.025288321
-0.030140964
-0.033834603
-0.037083827
-0.092033698
-0.070735166
-0.048592334
-0.028002473
-0.0098061891
0.0042926315
-0.10298175
-0.11351408
-0.10993401
-0.092881281
-0.065986091
-0.035019757
-0.0055437273
0.017073994
0.030227092
0.034555154
0.027664844
0.01655734
0.0048409255
-0.0061958062
-0.01523635
-0.021943147
-0.026853172
-0.031933508
-0.08237824
-0.057945502
-0.034737594
-0.014306717
0.0028684888
0.017398053
-0.10445073
-0.11568881
-0.11139799
-0.092095506
-0.061664387
-0.0266934
0.0051751344
0.03118361
0.046016387
0.050169473
0.047392412
0.037354781
0.025070964
0.012756235
0.0015683064
-0.0079933216
-0.015991937
-0.023302037
-0.08190217
-0.054980622
-0.028798309
-0.0055558778
0.014326665
0.02931216
-0.091912011
-0.11039974
-0.11447716
-0.1021103
-0.075814258
-0.041317174
-0.0063532302
0.025402431
0.047565123
0.059934422
0.060694802
0.051694072
0.039834613
0.026665163
0.014097591
0.0032025312
-0.005889868
-0.015179671
-0.064953342
-0.036316973
-0.010325546
0.011346402
0.029492352
0.044773441
-0.08513672
-0.1043526
-0.1081434
-0.094524757
-0.065608824
-0.028625037
0.008192055
0.041259515
0.064684499
0.076249839
0.077377457
0.071484519
0.059098881
0.045029827
0.031049394
0.018095763
0.0067393539
-0.003890059
-0.057109358
-0.026731706
0.00095539223
0.024215916
0.043837523
0.058338705
-0.065506182
-0.090670431
-0.1033804
-0.098289145
-0.076123858
-0.042037105
-0.0045958841
0.031958974
0.061506044
0.080770599
0.089237047
0.084578486
0.072917263
0.059280218
0.044751467
0.031111714
0.018940485
0.0063533489
-0.034513929
-0.0040940105
0.021712904
0.042526458
0.06010003
0.07472155
-0.051970048
-0.077004501
-0.089308389
-0.084339338
-0.060844494
-0.026031381
0.012371704
0.049834649
0.079758817
0.098078723
0.10362961
0.10137799
0.090697155
0.076215626
0.060831562
0.045835376
0.03230596
0.019336608
-0.020283486
0.010425691
0.036423846
0.05789082
0.075783888
0.088686784
-0.027372327
-0.057315778
-0.076970576
-0.080685482
-0.066212246
-0.038040709
0.00041200752
0.038836349
0.072836701
0.097551636
0.11157335
0.11367027
0.10331818
0.089710135
0.074609193
0.059519938
0.045474889
0.030790303
0.0050118661
0.033908499
0.05746014
0.076066046
0.091820571
0.10465045
-0.0091724663
-0.039349522
-0.058889431
-0.062306643
-0.047497864
-0.019886935
0.017856329
0.056844971
0.090879015
0.11422667
0.12572447
0.12540792
0.11860233
0.10467577
0.08898798
0.073151931
0.058608196
0.044379405
0.022496109
0.050553957
0.073749867
0.092347969
0.10738212
0.11788544
0.016636245
-0.015228019
-0.040871799
-0.053222351
-0.048162513
-0.028255005
0.006935344
0.044146017
0.081061418
0.10948435
0.12811988
0.13587245
0.13031696
0.11657253
0.10190913
0.086481574
0.071682646
0.056116233
0.047295101
0.073245109
0.093657462
0.10911469
0.12202729
0.13224163
0.035211906
0.0042738678
-0.0219653
-0.034206137
-0.028960126
-0.010041313
0.022794344
0.06014179
0.09615137
0.1240524
0.1406685
0.1445179
0.14013219
0.1288161
0.11382848
0.098235156
0.083721137
0.069325398
0.065018585
0.090333212
0.11005534
0.12492316
0.13621036
0.14383038
0.060277321
0.028984349
-0.00080516719
-0.021403969
-0.027946172
-0.014619916
0.013021894
0.04578133
0.0835648
0.11575566
0.13820219
0.14942113
0.15080378
0.13917083
0.12495905
0.11029948
0.095765
0.080489167
0.088563757
0.11105726
0.12764567
0.13920921
0.14844981
0.15560049
0.076891871
0.046174539
0.017750587
-0.0027343605
-0.011993702
-0.0019222875
0.024123343
0.056879919
0.093511274
0.12520415
0.14705402
0.15604159
0.15470843
0.1473193
0.13393581
0.11949251
0.10593509
0.09241867
0.10487903
0.12692857
0.14287064
0.15332691
0.16023933
0.16466757
0.10108655
0.069653338
0.037156829
0.010172644
-0.0066725193
-0.0029335816
0.013718557
0.04199335
0.078438807
0.11236277
0.13952075
0.15556786
0.16170601
0.15626691
0.14269753
0.12947863
0.11615748
0.10229209
0.12639735
0.14510031
0.15718221
0.16424012
0.16919778
0.172974
0.11528128
0.083818469
0.051096421
0.023270554
0.0067523687
0.004498462
0.018714251
0.045399929
0.080827276
0.11487707
0.14229757
0.15812595
0.16113681
0.1575629
0.14786036
0.13548793
0.12377085
0.11215528
0.1405561
0.15879603
0.16984925
0.17556897
0.17771209
0.17895194
0.13517227
0.1040846
0.070038425
0.038308058
0.015531986
0.0053749103
0.011604712
0.031163234
0.06241613
0.097288885
0.12879895
0.15111336
0.16186416
0.16466124
0.15409329
0.14254037
0.13153102
0.12001309
0.15911568
0.17344949
0.18045645
0.1824951
0.18267298
0.18274372
0.14864268
0.11620192
0.07873209
0.042005688
0.015057668
0.0047480301
0.0076776684
0.027451338
0.057349049
0.092374983
0.12460317
0.14800612
0.15818549
0.15922342
0.15400458
0.14499387
0.13609067
0.12700481
0.17204375
0.1849878
0.19008009
0.19011492
0.18751911
0.18501846
0.16273679
0.13377828
0.098369063
0.060512933
0.029145739
0.0097043105
0.001512638
0.011901945
0.037427862
0.070379575
0.10499205
0.13391998
0.15230031
0.16045229
0.15748112
0.1485321
0.14060807
0.13220419
0.1827225
0.19384351
0.1959781
0.1929118
0.18833699
0.18411329
0.17223895
0.13987673
0.10092452
0.060163263
0.023948384
-0.0012639623
-0.010562247
-0.0011426433
0.024026209
0.058038918
0.09394116
0.12437213
0.14386064
0.15084275
0.15106452
0.14713231
0.14148234
0.1359455
0.19413349
0.20402271
0.20276326
0.19641293
0.18896362
0.18248188
0.18375716
0.15758377
0.12145965
0.080020905
0.039713397
0.0062924699
-0.013287597
-0.012594161
0.0028905102
0.033242302
0.069092605
0.10363368
0.13018199
0.14568103
0.15135073
0.14745116
0.14266837
0.13844429
0.19865509
0.20354265
0.20145501
0.194194
0.18502492
0.17664892
0.18659808
0.15793625
0.11901585
0.074414369
0.031128829
-0.0053651003
-0.028251926
-0.03099024
-0.016091215
0.014565111
0.052358147
0.088731796
0.11717223
0.1327526
0.13928174
0.14099801
0.13974425
0.13825857
0.20428155
0.20980373
0.20574445
0.19417688
0.18113788
0.17066224
0.19601957
0.17374502
0.13915927
0.095722886
0.049527746
0.0068084439
-0.025132286
-0.039905197
-0.033847281
-0.011033488
0.024034913
0.062487463
0.096477469
0.12059893
0.13432647
0.13779747
0.13712626
0.1374518
0.2056394
0.20372139
0.19634537
0.18525209
0.17234912
0.16001316
0.19142424
0.16739223
0.13119038
0.086102435
0.038752391
-0.0062685459
-0.040018949
-0.057022978
-0.053315163
-0.031256459
0.0041359634
0.044267025
0.079965988
0.10505286
0.11877483
0.12661919
0.13040605
0.13324229
0.20289779
0.20280196
0.19541714
0.18111363
0.16405376
0.15055481
0.19613795
0.17842328
0.14779722
0.10604164
0.058455862
0.010580463
-0.030141605
-0.058764299
-0.067094398
-0.054120314
-0.024435958
0.014584876
0.053951063
0.086114924
0.10802618
0.11949573
0.12405745
0.12882827
0.20012554
0.1929049
0.18064194
0.1660978
0.15066797
0.13557594
0.18344153
0.16605453
0.13556605
0.093789085
0.04540898
-0.0040129381
-0.045940175
-0.075203915
-0.084182963
-0.072126921
-0.04316835
-0.0041514175
0.036263787
0.069155506
0.090754746
0.10466295
0.1139128
0.12077172
0.18820783
0.1833881
0.17235546
0.15669004
0.13800471
0.12291256
0.18041699
0.16960353
0.1462903
0.11043396
0.064673944
0.014981939
-0.031188463
-0.068888832
-0.089572644
-0.089610184
-0.068807186
-0.033485552
0.0073359532
0.045373367
0.074418545
0.09354103
0.1040605
0.11340828
0.18017146
0.16960581
0.15406672
0.13736223
0.12092953
0.10483635
0.16046752
0.15144099
0.12983277
0.095240904
0.051131988
0.002045031
-0.045022821
-0.083492384
-0.10508915
-0.10455079
-0.083904632
-0.049230655
-0.0090350779
0.029204629
0.057304658
0.076866317
0.091109825
0.1020031
0.15935988
0.15060201
0.13773954
0.1222269
0.10467994
0.090286397
0.14993628
0.1468694
0.1329845
0.10646719
0.068089154
0.021227849
-0.026687735
-0.071271782
-0.10190011
-0.11356243
-0.10374031
-0.075275736
-0.036825769
0.0031289693
0.037135827
0.062267732
0.078461993
0.092057268
0.14459235
0.13320154
0.11737464
0.10132055
0.085993142
0.071217016
0.12300224
0.122658
0.11204948
0.088884298
0.052930333
0.0099583345
-0.037378683
-0.081113581
-0.11292483
-0.12438886
-0.11396096
-0.08609215
-0.048752545
-0.010554138
0.022150984
0.045959669
0.064018671
0.078219122
0.1163678
0.10603236
0.094131644
0.081451901
0.067709814
0.056679644
0.10533572
0.10996502
0.10666817
0.092259485
0.064990989
0.026909621
-0.017764543
-0.063394923
-0.10180224
-0.12393839
-0.12543048
-0.10598104
-0.072778248
-0.034817652
0.00057947079
0.029230849
0.049691997
0.066598884
0.096561897
0.085885764
0.073835576
0.061744512
0.050286744
0.039537772
0.072673118
0.080497962
0.081534741
0.072351118
0.048723504
0.01705759
-0.026147992
-0.066777687
-0.10444221
-0.12737246
-0.12832561
-0.10974897
-0.078333521
-0.042737716
-0.010069557
0.015660744
0.035617298
0.051749026
0.062630779
0.053505665
0.045965124
0.039323295
0.032366603
0.027154875
0.050098117
0.060536232
0.067685723
0.066729259
0.05341798
0.029338502
-0.0069222342
-0.046686194
-0.086904226
-0.11675074
-0.1294228
-0.12090599
-0.095839668
-0.062750319
-0.029589264
-0.0010232513
0.021230375
0.039794381
0.0401099
0.032949279
0.028625544
0.024243376
0.019636172
0.015298429
0.013740978
0.027531958
0.040151675
0.045187326
0.038276197
0.020225875
-0.011005751
-0.044702037
-0.080488156
-0.10962402
-0.12166538
-0.11481709
-0.092712549
-0.063339325
-0.034436783
-0.0098396565
0.0096277672
0.025748019
0.0033920504
-0.00069328966
0.00055465775
0.0029634276
0.0051552245
0.0074649822
-0.010525126
0.0025251028
0.017906103
0.030475911
0.03404567
0.025980531
0.0038519319
-0.024451694
-0.059820051
-0.090597194
-0.1114008
-0.11517809
-0.10118542
-0.076468123
-0.049152159
-0.023891454
-0.0028796891
0.014994823
-0.017389132
-0.016341903
-0.010471434
-0.0044667323
-0.00025282011
0.0034655285
-0.045969948
-0.030385088
-0.010104434
0.0082908244
0.018818523
0.019308412
0.0026449599
-0.018839233
-0.046795956
-0.074610903
-0.094064154
-0.098209393
-0.087873839
-0.068046946
-0.046400272
-0.026326989
-0.0099500712
0.0038479309
-0.051891374
-0.046384956
-0.033699555
-0.020212808
-0.0082715
0.0012641554
-0.066933927
-0.055062606
-0.035617658
-0.014122566
0.0050139706
0.015808652
0.010399465
-0.0029409685
-0.026105485
-0.052287157
-0.074670819
-0.087622737
-0.085915498
-0.07256072
-0.054384653
-0.035365199
-0.018475573
-0.0041104059
-0.066478713
-0.053216807
-0.034715113
-0.018150343
-0.0051128194
0.0056419815
-0.097215261
-0.084007297
-0.059993942
-0.031750109
-0.0061612217
0.009185233
0.012433147
0.0015861173
-0.01076103
-0.030523233
-0.050244737
-0.062009144
-0.063218759
-0.055196298
-0.043211892
-0.03053942
-0.019490857
-0.010313051
-0.094051448
-0.075221718
-0.049579695
-0.025601662
-0.0053152606
0.0098634843
-0.11033176
-0.10426454
-0.083927808
-0.056423916
-0.027912324
-0.003877736
0.01337504
0.015758265
0.0071230138
-0.010240397
-0.027642262
-0.04334711
-0.051568568
-0.05034407
-0.042875433
-0.032967103
-0.022665486
-0.01407154
-0.097278069
-0.069547253
-0.039140415
-0.014013322
0.0054218615
0.021016592
-0.12965254
-0.12401092
-0.1008144
-0.068915359
-0.034911254
-0.0054787336
0.019214367
0.024841218
0.023376643
0.014563045
0.00033560539
-0.013357108
-0.022539654
-0.025758051
-0.024376532
-0.020951941
-0.017249023
-0.013698209
-0.11286628
-0.07951741
-0.043156086
-0.01217697
0.01309936
0.031258532
-0.12964775
-0.13576056
-0.12009879
-0.090554025
-0.056085023
-0.023083136
0.0071801297
0.025654546
0.037329875
0.032974693
0.021955954
0.0091249587
-0.0036190539
-0.012451663
-0.016178109
-0.016129066
-0.014007082
-0.012544189
-0.10088004
-0.060611265
-0.022790131
0.0068166888
0.029252531
0.047281947
-0.13387733
-0.14144903
-0.12420089
-0.092084601
-0.054784377
-0.017559989
0.01559968
0.040722315
0.052129465
0.055658659
0.050079898
0.038928714
0.026659218
0.015825503
0.0076332306
0.001695445
-0.002492874
-0.0058286316
-0.10144386
-0.057581297
-0.016135346
0.017038408
0.042973955
0.061314952
-0.1170229
-0.139251
-0.13500484
-0.10901792
-0.073034926
-0.034685899
0.0021784547
0.034323819
0.055678102
0.068872224
0.067242224
0.059458012
0.04746669
0.033999819
0.022221463
0.013090685
0.0069087667
0.00079094871
-0.075632289
-0.029248363
0.010167583
0.039341059
0.061799239
0.080115125
-0.10514748
-0.12855501
-0.12547461
-0.099887507
-0.062915372
-0.022593033
0.016695121
0.051158049
0.074557657
0.089375888
0.094122889
0.087681564
0.075864411
0.061669732
0.047495908
0.034220989
0.022948876
0.012951615
-0.062810003
-0.015543341
0.02430719
0.054635183
0.078903077
0.09599416
-0.076395152
-0.11104432
-0.12175306
-0.10747282
-0.076031352
-0.03724417
0.0026971525
0.041835924
0.073711416
0.097154161
0.10639388
0.10442148
0.095485398
0.081157774
0.065160475
0.050115118
0.037318451
0.024296715
-0.02953513
0.015721917
0.051251154
0.07744895
0.098438843
0.11548943
-0.054198068
-0.088339282
-0.10096766
-0.089839014
-0.059828422
-0.020405559
0.021567709
0.062360005
0.096955467
0.1184696
0.12984232
0.13134759
0.12168578
0.10687006
0.089748552
0.07206024
0.055854988
0.040594584
-0.0084554883
0.03439064
0.068691387
0.095264663
0.11660992
0.13165609
-0.020964081
-0.061484252
-0.084999543
-0.085359768
-0.064955196
-0.031164053
0.0090496129
0.050548851
0.089880204
0.12028279
0.14129328
0.14405281
0.13822373
0.12574543
0.10850737
0.090187372
0.073135597
0.055044418
0.02463545
0.063610226
0.094058829
0.11676439
0.13540012
0.15042947
0.0042269473
-0.035098971
-0.059554153
-0.062922552
-0.045381822
-0.01189147
0.029458021
0.073097926
0.11207566
0.14208421
0.16063056
0.16756413
0.16221068
0.14861413
0.13086673
0.11119778
0.092367675
0.073714531
0.046506571
0.083200539
0.11250735
0.13500202
0.15304056
0.16582158
0.035756793
-0.0057137047
-0.03688996
-0.050282574
-0.042846029
-0.017947763
0.018333189
0.060877108
0.10237357
0.13884691
0.16564924
0.17962189
0.17543229
0.16512672
0.14896752
0.12970686
0.11052934
0.089646936
0.075983223
0.10932762
0.13511899
0.15430059
0.17026909
0.18299549
0.057602002
0.018031426
-0.013356512
-0.028731792
-0.022901955
0.00088559995
0.037602602
0.081844806
0.12598967
0.16216835
0.18532632
0.19653389
0.19721925
0.18527132
0.16823841
0.14846443
0.12893835
0.10882877
0.095584614
0.12756654
0.152678
0.17157134
0.18640857
0.19696327
0.085915778
0.046714885
0.011299201
-0.011376916
-0.016064513
-0.0020408405
0.027677029
0.06833241
0.11279069
0.15364028
0.18499522
0.20543219
0.20893202
0.19872957
0.18438498
0.16585091
0.14635088
0.12476236
0.12156199
0.15052599
0.17251254
0.18850801
0.20162192
0.21192138
0.10247845
0.064812449
0.029628112
0.0059961645
0.00085615824
0.014337078
0.043787455
0.08540923
0.13188826
0.17512939
0.20417484
0.2187417
0.22272836
0.2158054
0.20015261
0.1815151
0.16275321
0.14295627
0.13759135
0.1664612
0.18832782
0.20411207
0.21574431
0.2239255
0.12844625
0.091085518
0.054181768
0.024331432
0.0091514817
0.011088774
0.034266408
0.070055859
0.11477874
0.1601733
0.19749914
0.22142612
0.23400771
0.22680121
0.21314647
0.19663854
0.17820388
0.15772145
0.16125091
0.18697248
0.20578026
0.21867059
0.22856141
0.23611434
0.14022
0.10276683
0.066574049
0.039275709
0.022293274
0.022836909
0.043133508
0.079704548
0.12598216
0.17385796
0.21327656
0.23283748
0.23999232
0.23881352
0.22549059
0.2086672
0.19169921
0.17373071
0.17349911
0.20009586
0.21957372
0.2322641
0.2403392
0.2456104
0.1652228
0.12797768
0.088521912
0.054623443
0.028308784
0.022540301
0.033905311
0.062415804
0.10456363
0.15254039
0.19714533
0.2288585
0.2451887
0.24975761
0.23517535
0.22062578
0.20434269
0.18642207
0.1959413
0.21935684
0.23492313
0.24421709
0.25014694
0.25422925
0.17358247
0.13539218
0.09645491
0.061720554
0.035619881
0.027718356
0.035844976
0.063626628
0.10577324
0.15571783
0.2035204
0.23616077
0.24492299
0.25177939
0.24318747
0.22860538
0.21420889
0.19932912
0.20553702
0.23007697
0.24617786
0.25539468
0.25905251
0.26076554
0.19528708
0.15644306
0.11496052
0.075823522
0.044016845
0.028743471
0.028903555
0.047934328
0.082486089
0.12884828
0.17849843
0.22048367
0.24525185
0.26127038
0.25077226
0.23657646
0.22332296
0.20913993
0.22697665
0.24788451
0.25971349
0.26422008
0.26476792
0.26493099
0.20385023
0.16408433
0.11969777
0.07650087
0.04201745
0.022369228
0.021849705
0.038540486
0.072436426
0.12012311
0.17323104
0.21966085
0.24355444
0.25211423
0.25012514
0.24031849
0.22887506
0.21805414
0.23603212
0.25736778
0.26890376
0.27238868
0.26972784
0.26777725
0.22093066
0.18263465
0.13867999
0.092960778
0.055784456
0.030162676
0.01661643
0.022038611
0.04610395
0.087661923
0.1395369
0.19140322
0.23001519
0.25060765
0.25572917
0.24373147
0.23382652
0.2244917
0.25080452
0.27154436
0.27910851
0.27759757
0.27132427
0.26653402
0.2271389
0.18409298
0.13619186
0.088514717
0.047061799
0.01671941
-0.0011964298
0.00084329369
0.024631009
0.068205534
0.12310658
0.17940959
0.22147121
0.2375935
0.24414278
0.24178525
0.23480251
0.22857503
0.26036384
0.28228209
0.28764129
0.28109694
0.27260737
0.26466288
0.24289025
0.20424241
0.15688206
0.10944422
0.062591813
0.024581707
-0.0021100753
-0.010773485
0.0008199796
0.03245594
0.082810974
0.14047161
0.19275167
0.22765548
0.24311293
0.24193248
0.23532952
0.23109779
0.26945537
0.2890405
0.28903374
0.27969087
0.26777024
0.25713941
0.24315337
0.20056154
0.15031401
0.099597139
0.050521424
0.0090934416
-0.02200122
-0.036381122
-0.028784568
0.0031531862