/*--------------------------------*- C++ -*----------------------------------*\
| =========                 |                                                 |
| \\      /  F ield         | OpenFOAM: The Open Source CFD Toolbox           |
|  \\    /   O peration     | Version:  2112                                  |
|   \\  /    A nd           | Website:  www.openfoam.com                      |
|    \\/     M anipulation  |                                                 |
\*---------------------------------------------------------------------------*/
FoamFile
{
    version     2.0;
    format      ascii;
    arch        "LSB;label=32;scalar=64";
    class       surfaceScalarField;
    location    "0.335";
    object      phi_0;
}
// * * * * * * * * * * * * * * * * * * * * * * * * * * * * * * * * * * * * * //

dimensions      [0 3 -1 0 0 0 0];

oriented        oriented;

internalField   nonuniform List<scalar> 
23855
(
-0.00010045329
-7.1388496e-06
-9.3314439e-05
-0.00032757353
0.00032043468
-9.3314439e-05
-4.781863e-05
-0.0002797549
-4.9808628e-05
-9.023311e-06
-8.4291128e-05
0.0004227152
-0.00047053383
-0.00028877821
-0.00058083271
-8.4291128e-05
-0.00015811751
-6.6186273e-05
-0.00040434756
-2.4995779e-05
-0.00026378243
-2.8875704e-06
-8.1403557e-05
-0.00057767779
0.00041956028
0.00047097017
-0.00053715644
-0.00042934334
-0.00026667
-8.1403557e-05
-0.00010670761
-0.00024947357
-0.00050395527
-3.3201173e-05
-2.8882413e-05
-0.00040046093
-9.5618768e-06
-0.00025710812
1.7483053e-06
-8.3151862e-05
-0.00048796068
0.00038125306
-0.00063641684
0.00038694326
-0.00053283769
0.00063310992
-0.00066631109
-0.0004100228
-0.00025535982
-8.3151862e-05
0.00014514924
-0.00025516377
-0.00038571509
-2.6162699e-05
-0.00050667499
-0.00060160542
-6.4705675e-05
-1.0275087e-05
-0.00039974771
1.577728e-06
-0.00025693754
5.3410634e-06
-8.8492925e-05
0.00056688127
-0.00042173203
0.0003117175
-0.00074071318
0.00035499809
-0.00062776812
-0.00051695007
-0.00074227403
0.00067756836
-0.00039816999
-0.00025159648
-8.8492925e-05
-0.00071345609
0.00029172406
-0.00042899568
-0.0005316594
-2.0280172e-05
-0.00060748795
-3.1281337e-06
-0.00051382194
-0.00071506779
-2.7206244e-05
-3.5887729e-05
6.1331896e-06
-0.00040430318
1.0341744e-05
-0.00026193822
7.8137716e-06
-9.6306697e-05
0.00075014152
-0.00045841746
0.00032114584
-0.00088681411
0.00035515471
-0.00073534796
-0.00061061608
-0.00050768875
0.00095910703
-0.00098631328
0.00072276354
-0.00075865126
-0.00039396143
-0.00025412445
-9.6306697e-05
0.00026434607
-0.00056566826
-0.00065933659
-2.3626273e-05
-0.00071172169
1.0389456e-05
-0.00062100553
1.9117717e-05
-0.00052680647
0.00020045577
-0.00079096686
-0.00019534641
1.9780559e-05
-0.00041374199
1.693655e-05
-0.000271061
9.1804462e-06
-0.00010548714
0.00093778385
-0.00067343777
0.00037211559
-0.0010416589
0.00038232231
-0.00081459314
-0.00070133223
-0.00060188782
-0.00050702591
0.0011869611
-0.00098650529
0.00062903929
-0.0008243857
-0.00039680544
-0.00026188056
-0.00010548714
0.00051352329
-0.00066954331
-0.00076052672
-0.00082301362
8.4204846e-06
3.5234714e-05
-0.00073656695
4.2019073e-05
-0.00064390689
3.7699488e-05
-0.0005447254
-0.0012631512
0.00027664589
-0.0006341119
-0.00087444184
5.0056133e-05
3.0126346e-05
-0.00042693179
2.12309e-05
-0.00028311146
9.5240032e-06
-0.00011501115
0.0011082137
-0.00059469037
0.00043867034
-0.001170813
0.00041028629
-0.00078777891
-0.00086602135
-0.00069454787
-0.0006062074
-0.00051459905
0.0012132463
-0.00093660044
-0.00095945753
0.00032534563
-0.0009094014
-0.00040570089
-0.00027358745
-0.00011501115
-0.0011127836
0.00051809327
-0.00073214267
-0.00084948036
-0.00086639046
7.8611551e-05
-0.00095757166
9.1550308e-05
7.5644879e-05
-0.00077019275
6.5008537e-05
-0.00067121594
5.0662283e-05
-0.00056526133
0.0001004627
-0.0012697177
0.00033311726
-0.00094437207
-0.0010750753
0.00016567391
3.6602979e-05
-0.00044230387
2.3063011e-05
-0.00029665046
8.9063476e-06
-0.00012391749
0.0011742756
-0.00065618236
0.00044213295
-0.0012752969
0.00042581655
-0.00079074558
-0.00087896011
-0.000983525
-0.00070518421
-0.00062055366
-0.00052865835
0.0010406616
-0.00094019886
0.0013045603
-0.000971443
-0.0014038086
0.00045943652
-0.0012381347
-0.00041924086
-0.00028774412
-0.00012391749
0.0003844792
-0.00083316396
-0.0009180135
-0.00090844899
0.00011770341
-0.0010072854
0.00012832528
-0.0011013415
0.00011781647
0.00010025338
-0.0008054376
7.892597e-05
-0.00069947963
5.776617e-05
-0.00058642452
0.00036436141
-0.0014475746
0.00047613156
-0.00098813805
-0.0011734094
-6.4725242e-05
3.909309e-05
-0.00045833394
2.2468342e-05
-0.00031021246
7.4395966e-06
-0.00013135709
0.0012774772
-0.000892998
0.00044431324
-0.0013693829
0.00045136941
-0.0008081956
-0.00088958199
-0.00097301619
-0.001055593
-0.00072651163
-0.00064171346
-0.00054733144
0.0013380215
-0.00097366011
0.0014462035
-0.0009700719
-0.0016210643
0.00063292621
0.00095023185
-0.0010149571
-0.0004358656
-0.00030277286
-0.00013135709
0.00044502352
-0.00092506966
-0.00093503715
-0.00094988016
0.00014168456
-0.0010541771
0.00016459513
-0.0011475753
0.00017455911
-0.0012117326
0.00015613968
0.00011360349
-0.00084011512
8.5012964e-05
-0.00072672642
5.9270747e-05
-0.00060660218
0.00047254335
-0.0015324031
0.00056233122
-0.0006708324
-0.00089947691
-0.0012087666
0.00019380946
3.7697355e-05
-0.00047356296
1.9628048e-05
-0.00032240091
5.2858369e-06
-0.00013664293
0.0014367395
-0.00099171595
0.0005116698
-0.0014513264
0.0005162893
-0.00083627667
-0.00091249256
-0.00098298017
-0.0010371735
-0.0010526269
-0.00075510216
-0.00066745567
-0.00056890483
0.0014816296
-0.0010090862
0.0014812685
-0.00091893733
-0.0011930747
0.00052224235
-0.0016431226
0.00074364568
-0.00099926529
-0.00045393491
-0.00031711507
-0.00013664293
0.00048991364
-0.00093965664
-0.00087479898
-0.00099038017
0.0001541035
-0.0011004052
0.00018791265
-0.0011957103
0.00021273008
-0.0012632075
0.00022603393
-0.001298146
0.00024551908
0.00011797576
-0.00087307791
8.4082836e-05
-0.00075153851
5.5473308e-05
-0.00062437813
0.00047218231
-0.001456399
0.00053746167
-0.0011208802
-0.00071275332
-0.001304136
0.00030487071
3.2652631e-05
-0.00048658754
1.4852549e-05
-0.00033196762
2.6152438e-06
-0.00013925817
0.0016623088
-0.0011723951
0.00072265211
-0.0014159091
0.00054111014
-0.00087240441
-0.00094630171
-0.0010077976
-0.0010504774
-0.001072112
-0.0010586169
-0.00078899508
-0.0006960652
-0.0005917255
0.0014826769
-0.0010104946
0.0014183048
-0.00088084317
-0.001370752
0.00024987172
0.00057173686
-0.0012844902
-0.0010658812
-0.00047173499
-0.00032935238
-0.00013925817
0.00031028178
-0.00069325701
-0.00082190568
-0.0010262142
0.00015380979
-0.0011391212
0.00019281945
-0.0012325254
0.00022472776
-0.0012985931
0.00024811572
-0.0013352295
0.00026311749
-0.0013392908
0.00028067388
0.00011319043
-0.0009021855
7.6602704e-05
-0.00077266791
4.6738561e-05
-0.00063846406
0.00040781025
-0.0013076196
0.00042677641
0.0013396089
-0.0010897372
-0.00073588272
5.5118725e-05
-0.0013432648
0.00027738351
2.4356305e-05
-0.0004960913
8.5110175e-06
-0.00033786339
-3.2909107e-07
-0.00013892908
0.0013753014
-0.0010650197
-0.0012742323
0.00058097533
-0.0012765173
0.00045461165
-0.00091302378
-0.00098531137
-0.0010397059
-0.0010738653
-0.0010871138
-0.0010761733
-0.0010625909
-0.0008255828
-0.00072592934
-0.00061410776
0.0013782334
-0.0009704232
0.001330535
-0.00090375855
-0.0013189776
0.00022924046
-0.001046802
0.00031091928
-0.00099168327
-0.0010415941
-0.00048758028
-0.00033819249
-0.00013892908
0.00010106909
0.0003132138
-0.00069554199
-0.00082749025
-0.0010467928
0.00013376898
-0.0011557149
0.00017040353
-0.0012440307
0.00020432481
-0.0013085125
0.00023464712
-0.0013456009
0.00025848712
-0.0013513017
0.00027512842
-0.001342776
0.00028018516
9.6529264e-05
-0.00092211206
6.1774343e-05
-0.00078770369
3.3590642e-05
-0.0006476984
0.00036011177
-0.001213655
0.00030989642
0.0012222856
-0.0009930451
-0.00090273569
0.00023060229
-0.0013094243
0.00026783012
1.3376266e-05
-0.00050095655
1.0384173e-06
-0.0003392309
-3.579149e-06
-0.00013534993
0.0010543943
-0.00095332525
0.0012697997
-0.00095658588
0.00035885235
-0.0011930173
0.000365527
-0.0009502635
-0.0010219459
-0.0010736272
-0.0011041876
-0.0011109538
-0.0010928146
-0.0010676476
-0.0010292391
-0.00086033772
-0.00075411305
-0.00063432213
0.001322511
-0.00096239919
0.0012539903
-0.00094409384
-0.0012439773
0.00025093216
-0.0011579571
0.00025522143
-0.00092735484
-0.00097614713
-0.00049991813
-0.00034281005
-0.00013534993
0.00031647442
0.00036592508
-0.0008341649
-0.00079566931
-0.0010396997
8.9436239e-05
-0.0011405685
0.00011862258
-0.0012248265
0.00015119934
-0.0012896508
0.00018546316
-0.001329826
0.00021887225
-0.0013416171
0.00024880246
-0.0013327905
0.00026514287
-0.0012955428
0.00026630365
6.2779521e-05
-0.00092311724
3.7891378e-05
-0.00079200442
1.5961755e-05
-0.00065028389
0.00029159108
-0.0011487379
0.00020464403
0.001164663
-0.00091373083
-0.00089351644
0.00023730815
-0.0012324301
0.00025628296
5.7469869e-07
-0.00050049283
-7.1057984e-06
-0.00033570425
-6.6777673e-06
-0.00012867216
0.0011817621
-0.00086528772
0.0012687772
-0.00090285215
0.00034759724
-0.0011080566
0.00031238725
-0.00097692021
-0.0010511323
-0.001106204
-0.0011384515
-0.0011443629
-0.0011227448
-0.001083988
-0.0010303999
-0.00096612643
-0.00088522586
-0.00077604267
-0.00064970919
0.0013776343
-0.0010860433
0.0011117745
-0.00090713042
-0.001151251
0.00023752021
-0.001094649
0.00020113253
-0.00085734082
-0.00089496809
-0.00050759863
-0.00034238202
-0.00012867216
0.0004034895
0.0004747822
-0.00076045932
-0.00070688374
-0.00100362
2.669978e-05
-0.0010989696
4.7837387e-05
-0.0011839892
7.7785232e-05
-0.0012531787
0.00011472722
-0.0012981426
0.00015377973
-0.0013146302
0.00019188534
-0.0013074319
0.00022344385
-0.0012697497
0.00023934981
-0.0012057053
0.0002395789
1.309392e-05
-0.00089831978
2.864165e-06
-0.00077890683
-6.4002783e-06
-0.00064330891
2.5731182e-05
-0.0010242646
0.00011713415
0.0010629946
-0.00082547441
-0.00082313204
0.00020565381
-0.0011228532
0.0002278851
-1.3418296e-05
-0.00049418033
-1.5015929e-05
-0.00032736609
-9.3862689e-06
-0.00011928589
0.0011008913
-0.00069740183
0.0012462348
-0.00077145258
0.00034043201
-0.0009502111
0.00024332736
-0.00099052607
-0.0010722699
-0.0011361518
-0.0011753935
-0.0011834154
-0.0011608504
-0.0011155465
-0.0010463058
-0.00096635553
-0.00088327429
-0.00089545562
-0.00078530711
-0.00065672721
0.00092345976
-0.00089772857
0.00092051296
-0.00080337881
-0.0010292262
0.00020375176
-0.00097457892
0.00015144688
-0.00076892511
-0.00080134107
-0.00050919626
-0.00033675236
-0.00011928589
0.00054883295
-0.0010367106
0.000265258
-0.00060977909
-0.00063077167
-0.00094803181
-4.2494268e-05
-0.0010423202
-2.9949621e-05
-0.0011310614
-5.090372e-06
-0.0012061595
3.0766015e-05
-0.0012575895
7.4174093e-05
-0.0012794633
0.00011861281
-0.0012753509
0.00015980435
-0.0012362645
0.00018995868
-0.0011699544
0.00020359891
-0.0010856382
0.00020236391
-4.4123982e-05
-0.00085133164
-3.8713204e-05
-0.00074659391
-3.2510088e-05
-0.00062421712
-0.00011325082
2.2784382e-05
-0.00088515807
8.177926e-05
0.00093307938
-0.00072932762
-0.00073371119
0.00016415426
-0.00099001112
0.00018867005
-2.797998e-05
-0.00048121628
-2.2032644e-05
-0.00031471972
-1.1343582e-05
-0.00010794231
0.00081420446
-0.0002653715
-0.00062004187
0.00088529987
0.00020442537
-0.00076936901
0.00013859735
-0.00099215579
-0.0010848145
-0.0011610111
-0.0012112498
-0.0012268235
-0.0012052892
-0.0011567381
-0.0010764602
-0.00097999576
-0.00088203929
-0.00078764721
-0.00089004484
-0.000779104
-0.0006521971
0.00065227508
-0.0007655259
0.00076712761
-0.00074434323
0.00077754015
-0.00069576089
-0.00089110639
0.00016177877
-0.00084396775
0.00011025656
-0.00067981349
-0.00070243633
-0.00050324892
-0.0003260633
-0.00010794231
-0.00086554235
0.00060017085
3.2233204e-05
1.975752e-05
-0.00056494365
-0.00057973059
-0.00088381777
-0.00010833802
-0.00097919811
-0.0001056164
-0.00107163
-8.9381067e-05
-0.0011520846
-5.9165202e-05
-0.0012100002
-1.6823296e-05
-0.0012373599
3.2070713e-05
-0.0012389307
8.219265e-05
-0.0012004885
0.00012402831
-0.0011308635
0.00015086778
-0.0010442525
0.00016221318
-0.00094761012
0.0001599629
-9.8443429e-05
-0.00079160141
-7.9499063e-05
-0.00069960493
-5.8739858e-05
-0.00059345724
1.6017121e-06
3.3196919e-05
-0.00075522677
5.9465878e-05
0.00080082931
-0.00063905054
-0.0006449702
0.00012101582
-0.00084783106
0.00014539473
-4.1642743e-05
-0.00046160618
-2.7512978e-05
-0.00029855032
-1.2266195e-05
-9.5676113e-05
3.5227201e-05
-0.00060524867
0.00063748187
-0.00061828532
0.00063804284
-0.00064457612
6.484553e-05
-0.0009822612
-0.0010875361
-0.0011772464
-0.0012414657
-0.0012691654
-0.0012541832
-0.00120686
-0.0011182958
-0.0010068352
-0.00089338469
-0.00078539694
-0.00068786816
-0.00087110047
-0.00075834479
-0.00063509999
0.00062232738
-0.00062072566
0.0006404409
-0.00060724398
0.00063852882
-0.00057906294
-0.00075702414
0.00011797359
-0.00071993827
7.4968062e-05
-0.00059892244
-0.00061162941
-0.00048911916
-0.00031081652
-9.5676113e-05
-0.00060934892
1.7078705e-05
1.9196555e-05
2.8693924e-05
0.0005667937
-0.00050194817
-0.00082050511
-0.00016175609
-0.00091791985
-0.00016961627
-0.0010131071
-0.00016413932
-0.001097339
-0.00014412667
-0.0011604208
-0.00010874463
-0.0011921004
-6.2082801e-05
-0.0011986712
-8.1887995e-06
-0.0011619873
4.3691524e-05
-0.0010905869
8.375172e-05
-0.0010021083
0.00010872362
-0.00090473609
0.00011933915
-0.00080520297
0.00011733481
-0.000141516
-0.00072958447
-0.00011219227
-0.00064615253
-7.9875819e-05
-0.00055522417
1.9715234e-05
3.1284836e-05
-0.00062062626
4.1563324e-05
0.00067947467
-0.00056150108
-0.0005456582
8.055223e-05
-0.00071454251
0.0001029131
-5.2163644e-05
-0.00043695551
-3.0702476e-05
-0.00028011404
-1.2027267e-05
-8.3648846e-05
0.00049613893
-0.00047906023
-0.00048357934
0.0005027759
0.0005181184
-0.00048942448
1.2586315e-05
1.6170237e-05
-0.00096202111
-0.0010796759
-0.0011827233
-0.0012614784
-0.0013045474
-0.001300845
-0.001260754
-0.0011701761
-0.0010468954
-0.0009183566
-0.00079601247
-0.00068586382
-0.0005972077
-0.00084177674
-0.00072602834
-0.00060738781
0.00049333698
-0.00047362175
0.00049187357
-0.00046058874
0.00048350815
-0.00044194483
-0.00063850019
7.6999113e-05
-0.00059307754
4.7419341e-05
-0.00051252531
-0.00053558709
-0.00046765799
-0.00029214131
-8.3648846e-05
1.2559591e-05
1.4276754e-05
1.3351416e-05
-0.00036126926
0.0003579544
-0.00034178416
-0.00076484635
-0.00019717476
-0.00086424412
-0.00021543182
-0.00096124814
-0.00022147521
-0.0010468799
-0.00021459847
-0.0011131069
-0.00019144053
-0.0011482458
-0.00015259924
-0.0011585089
-0.00010224511
-0.0011239147
-4.6261417e-05
-0.0010516103
4.7149038e-06
-0.00096198769
4.3631091e-05
-0.00086443275
6.8420282e-05
-0.00076583448
7.9970661e-05
-0.00067584263
7.8634932e-05
-0.0001680727
-0.00067370404
-0.0001312941
-0.00059473425
-9.1959455e-05
-0.00051542836
1.8251825e-05
2.2919411e-05
-0.00046804695
2.6102123e-05
0.00056081857
-0.00048381946
-0.00042062761
4.829326e-05
-0.00060071675
6.5129661e-05
-5.734764e-05
-0.00041031035
-3.0833594e-05
-0.00026130771
-1.0478199e-05
-7.3170647e-05
-0.00032640092
0.00033896051
0.00033298197
-0.00031870522
0.00034688527
-0.00033353386
-3.3148614e-06
5.1011075e-06
-0.00093291905
-0.0010614189
-0.00117668
-0.0012683551
-0.0013277054
-0.0013396863
-0.0013111081
-0.0012261598
-0.0010978717
-0.00095727278
-0.00082080166
-0.0006974142
-0.00059587197
-0.00052208182
-0.00080499814
-0.0006866937
-0.000572776
0.00032676908
-0.00030851726
0.0003181559
-0.00029523649
0.00030590838
-0.00027980625
-0.00052789914
4.4079686e-05
-0.00044755782
2.6930213e-05
-0.00039926456
-0.00046276948
-0.00044114394
-0.00027178591
-7.3170647e-05
6.5810526e-06
5.4266543e-06
8.0638631e-06
0.00014045743
-0.00014377229
0.00014377229
-0.00013867119
-0.00072152157
-0.00021139748
-0.00082188433
-0.00023953455
-0.00091962698
-0.00025705297
-0.0010057478
-0.00026260729
-0.0010724015
-0.0002553039
-0.001110696
-0.00022899031
-0.0011223837
-0.00018872447
-0.0010920308
-0.000134129
-0.0010202096
-7.7662148e-05
-0.00092938977
-2.7883014e-05
-0.0008311643
1.0362638e-05
-0.00073303155
3.561735e-05
-0.00064350571
4.7633745e-05
-0.00056857375
4.6491935e-05
-0.00017550132
-0.00062949681
-0.00013476241
-0.00055193129
-9.2955368e-05
-0.00047982063
9.6386439e-06
1.0671889e-05
-0.00029064994
1.0843682e-05
0.00042445584
-0.00038037615
-0.00026371972
2.5191277e-05
-0.00049777939
3.5009904e-05
-5.5812541e-05
-0.0003853314
-2.7464673e-05
-0.00024432124
-7.6690934e-06
-6.5501553e-05
0.00013324453
-0.00012666348
0.00013867119
-0.00013324453
0.00012666348
-0.00011859962
-0.00089702289
-0.0010332818
-0.0011591615
-0.0012628008
-0.0013350088
-0.0013659999
-0.001351374
-0.0012807553
-0.0011543386
-0.0010070519
-0.00085904731
-0.00072266891
-0.00060788836
-0.00052094001
-0.00045128745
-0.00076425922
-0.00064488666
-0.00053563317
0.00011859962
-0.00010896097
0.00010896097
-9.8289085e-05
9.8289085e-05
-8.7445402e-05
-0.00040126722
2.0891069e-05
-0.00027373629
1.0016567e-05
-0.00024854501
-0.00036625732
-0.00041279607
-0.00025199033
-6.5501553e-05
-0.00069334719
-0.0002036757
-0.00079404429
-0.00023923753
-0.00089113473
-0.0002680268
-0.00097662549
-0.00028617528
-0.0010429054
-0.00029210333
-0.0010828065
-0.00028319338
-0.001095325
-0.000256049
-0.0010722526
-0.00020850271
-0.0010021062
-0.00015223242
-0.0009100361
-9.7015819e-05
-0.00080989142
-4.915589e-05
-0.00071065437
-1.201454e-05
-0.00062036698
1.2478621e-05
-0.00054430034
2.3360333e-05
-0.00047325084
2.1963387e-05
-0.00016422183
-0.00060003739
-0.00012291831
-0.00052196835
-8.2733834e-05
-0.00045289933
-8.7445402e-05
0.0002567231
-0.00023583203
-7.7428835e-05
8.1780874e-06
-0.00038051918
1.4261856e-05
-4.7358054e-05
-0.00036543802
-2.0691913e-05
-0.00023129842
-3.8213574e-06
-6.1680196e-05
-0.00085756902
-0.00099771999
-0.0011303723
-0.0012446523
-0.0013290807
-0.0013749098
-0.0013785184
-0.0013283016
-0.0012106089
-0.0010622685
-0.00090690724
-0.00075981026
-0.00063238152
-0.00053182172
-0.0004498905
-0.00035855579
-0.0007229557
-0.00060470218
-0.00050025739
-0.00024126283
5.4308013e-06
-7.7428835e-05
-6.9250748e-05
-0.00022700098
-0.00038612993
-0.00023511978
-6.1680196e-05
-0.00067948371
-0.00017808532
-0.00078103038
-0.0002166896
-0.00087751549
-0.00025285677
-0.00096129249
-0.0002833598
-0.0010267551
-0.00030232561
-0.001067647
-0.00030726282
-0.0010798767
-0.00029864166
-0.0010642497
-0.00026405192
-0.00099829311
-0.00021231577
-0.00090587416
-0.00015639435
-0.00080331271
-0.00010359453
-0.00070171882
-5.809144e-05
-0.00060895051
-2.3431019e-05
-0.00052976766
-2.0540566e-06
-0.00045627159
6.381081e-06
-0.00036438844
5.8326522e-06
-0.00013834481
-0.00058461089
-9.9127534e-05
-0.00050557465
-6.318612e-05
-0.00043707127
6.9250748e-05
-6.3819947e-05
-0.00022900055
1.9995727e-06
-3.3039955e-05
-0.00035308998
-1.1118455e-05
-0.00022400132
7.0483175e-07
-6.2385028e-05
-0.00081782852
-0.0009591157
-0.0010942051
-0.0012141493
-0.0013101149
-0.0013699726
-0.0013871395
-0.0013628914
-0.001262345
-0.0011181899
-0.00095970707
-0.00080531335
-0.00066704195
-0.00055319868
-0.00045832564
-0.00035800736
-0.0002231679
-0.00068373842
-0.00056876077
-0.00047011122
-6.3819947e-05
-6.1820374e-05
-0.00036420843
-0.00022329649
-6.2385028e-05
-0.0006789876
-0.00013884093
-0.0007818399
-0.0001772758
-0.00087894052
-0.00021526458
-0.00096116502
-0.00025298423
-0.0010232095
-0.00028690536
-0.0010627776
-0.00030719503
-0.0010755785
-0.00031156098
-0.0010662634
-0.00029662798
-0.0010081592
-0.00025418582
-0.00091715721
-0.00020103272
-0.00081205351
-0.00014765356
-0.00070730763
-9.8005719e-05
-0.00061052773
-5.6514212e-05
-0.00052640613
-2.6792551e-05
-0.00044831978
-1.000586e-05
-0.00035449112
-3.5162431e-06
-0.00022129218
-1.8757156e-06
-0.00010084918
-0.00058288924
-6.5977463e-05
-0.00050278331
-3.6841404e-05
-0.00043326982
-6.1820374e-05
-1.4543712e-05
-0.00034966472
2.4635323e-07
-0.00022354284
5.6325601e-06
-6.8017588e-05
-0.00077983677
-0.00092068083
-0.0010562163
-0.0011764296
-0.0012761938
-0.001349683
-0.0013827736
-0.0013778244
-0.0013047872
-0.001171343
-0.0010130862
-0.00085496119
-0.00070853345
-0.00058292034
-0.00047511233
-0.00036449698
-0.00022480842
-6.369609e-05
-0.00064886671
-0.00053962471
-0.00044781353
-0.00034941837
-0.00021791028
-6.8017588e-05
-0.00069236475
-8.7472017e-05
-0.00079614739
-0.00012453343
-0.00089485135
-0.00016136496
-0.00097825957
-0.00019817003
-0.0010393392
-0.00023685455
-0.0010745819
-0.00027510101
-0.0010830966
-0.000299677
-0.0010736907
-0.00030413367
-0.0010280913
-0.00027669589
-0.00094290149
-0.00022844154
-0.00083575208
-0.00017733415
-0.00072713063
-0.00012783056
-0.0006250745
-8.3458954e-05
-0.00053445243
-4.8467911e-05
-0.00044979024
-2.5322098e-05
-0.00035175228
-1.2744693e-05
-0.00021909008
-5.71834e-06
-6.369609e-05
-5.3183333e-05
-0.00059568337
-2.5608566e-05
-0.00051401614
-6.1548072e-06
-0.00044165872
6.1936116e-06
-0.00035561198
1.2166911e-05
-0.00023007719
9.9585651e-06
-7.7976153e-05
-0.00074554809
-0.00088361941
-0.0010193848
-0.0011396245
-0.0012375092
-0.0013114365
-0.0013581976
-0.0013733677
-0.001332225
-0.0012195974
-0.0010641936
-0.00090446478
-0.00075290506
-0.00061791139
-0.00049825815
-0.00037707438
-0.00023183478
-6.941443e-05
-0.00062129194
-0.00052017095
-0.00043546511
-0.00034344507
-0.00022011863
-7.7976153e-05
-0.00072099387
-2.4554223e-05
-0.00082498331
-5.8636103e-05
-0.00092432307
-9.5061714e-05
-0.0010080922
-0.00013153233
-0.0010697187
-0.00016779052
-0.0011034898
-0.00020794675
-0.0011090789
-0.00024911872
-0.0010940598
-0.00027930784
-0.0010536056
-0.00027861941
-0.00097764788
-0.0002419495
-0.00087155185
-0.00019264177
-0.00075931331
-0.00014515148
-0.00065151723
-0.00010138783
-0.00055321593
-6.4695451e-05
-0.00046037397
-3.7884176e-05
-0.00035641789
-2.0656489e-05
-0.00022289282
-8.9419522e-06
-6.941443e-05
2.1420544e-06
-0.00062343399
1.8599432e-05
-0.00053877038
2.5722305e-05
-0.00046118742
2.6519313e-05
-0.00036996438
2.294298e-05
-0.00024306161
1.3244474e-05
-9.1220627e-05
-0.00071885181
-0.00084953753
-0.00098295917
-0.0011031539
-0.001201251
-0.0012712803
-0.0013170256
-0.0013431786
-0.0013329134
-0.0012562673
-0.0011135014
-0.00095195507
-0.00079666871
-0.00065460376
-0.00052506942
-0.00039430207
-0.00024354931
-7.8356382e-05
-0.00060483456
-0.00051304808
-0.0004346681
-0.0003470214
-0.00022981713
-9.1220627e-05
-0.00076486321
4.6011403e-05
-0.00086974794
2.0210406e-05
-0.00096936698
-1.359219e-05
-0.001051743
-5.1410889e-05
-0.0011114763
-8.9774727e-05
-0.0011417837
-0.00012949653
-0.0011437532
-0.00017327243
-0.0011257055
-0.0002174731
-0.0010842362
-0.00024867718
-0.0010159137
-0.00024035358
-0.00091548299
-0.00019801836
-0.00079954639
-0.00015240868
-0.00068600175
-0.00011066696
-0.00057998733
-7.4616435e-05
-0.0004785028
-4.6566622e-05
-0.00036781871
-2.6483362e-05
-0.00023232379
-1.122552e-05
-7.8356382e-05
5.9988494e-05
-0.00066482306
6.1958156e-05
-0.00057500624
5.5303263e-05
-0.00048997137
4.415382e-05
-0.00039117522
3.13765e-05
-0.00026119363
1.5054737e-05
-0.00010627536
-0.00070487472
-0.00082373654
-0.00094915658
-0.0010653352
-0.0011628872
-0.0012315585
-0.0012732497
-0.0012989779
-0.0013017093
-0.0012645909
-0.0011558366
-0.00099756476
-0.00083841043
-0.00069065429
-0.00055311923
-0.00041438533
-0.00025880716
-8.9581901e-05
-0.0006028649
-0.00051970297
-0.00044581755
-0.00035979872
-0.0002461389
-0.00010627536
-0.00082042221
0.00011554749
-0.00092768031
0.00010394378
-0.001028095
7.8938443e-05
-0.0011091432
4.3807985e-05
-0.0011662471
3.3598608e-06
-0.0011913938
-4.0164672e-05
-0.0011856082
-8.7641454e-05
-0.0011627317
-0.0001362462
-0.0011179567
-0.00018375258
-0.0010535343
-0.00021105657
-0.00096273917
-0.0001930974
-0.00084563887
-0.00015192588
-0.00072564849
-0.00011276194
-0.0006119374
-7.8716887e-05
-0.00050202669
-5.1092544e-05
-0.00038457692
-2.9808413e-05
-0.00024644245
-1.236471e-05
-8.9581901e-05
0.00011338917
-0.00071625407
9.9590155e-05
-0.00061929313
7.8720887e-05
-0.00052453843
5.690717e-05
-0.00041670589
3.6523998e-05
-0.00028266289
1.5306807e-05
-0.00012158217
-0.00070703304
-0.00081213282
-0.00092415124
-0.0010302048
-0.0011224391
-0.0011880339
-0.0012257729
-0.0012503731
-0.001254203
-0.0012372869
-0.0011737957
-0.0010387363
-0.00087757437
-0.00072469934
-0.00058074358
-0.00043566946
-0.00027625086
-0.00010194661
-0.00061666392
-0.00054057224
-0.00046763126
-0.00038018189
-0.00026735609
-0.00012158217
-0.00088142172
0.00017438869
-0.00099128438
0.00017915156
-0.0010920129
0.00016786163
-0.0011725495
0.00014234478
-0.001227924
0.00010548493
-0.0012481858
6.0151901e-05
-0.0012347935
9.0206248e-06
-0.0012055228
-4.4850357e-05
-0.001154777
-9.9425947e-05
-0.0010883345
-0.00014895235
-0.0010054604
-0.0001683353
-0.00089510872
-0.00014362755
-0.00076903417
-0.0001085402
-0.00064711211
-7.7587228e-05
-0.00052906427
-5.1679307e-05
-0.00040512286
-3.05466e-05
-0.00026388323
-1.2367631e-05
-0.00010194661
0.00015533731
-0.00077200123
0.00012587492
-0.00066644716
9.3551112e-05
-0.00056118238
6.4025465e-05
-0.00044420736
3.8096686e-05
-0.00030545277
1.4068144e-05
-0.00013565031
-0.00072608441
-0.0008168957
-0.00091286131
-0.0010046879
-0.0010855792
-0.0011427009
-0.0011746416
-0.0011965022
-0.0011996274
-0.0011877605
-0.0011544128
-0.001063444
-0.00091266172
-0.00075565231
-0.0006066515
-0.00045680217
-0.00029442983
-0.00011431424
-0.00064612631
-0.00057289605
-0.00049715691
-0.00040611067
-0.00029138463
-0.00013565031
-0.00094071599
0.00021463158
-0.0010530102
0.00023611446
-0.0011542004
0.00024133906
-0.0012346023
0.00022991437
-0.0012891491
0.00020356992
-0.0013040773
0.00016137635
-0.0012857914
0.0001111498
-0.0012508323
5.4330117e-05
-0.001193153
-6.4743493e-06
-0.0011209427
-6.6817822e-05
-0.0010388892
-0.00011552357
-0.00093979822
-0.0001236458
-0.00081425601
-9.8405713e-05
-0.00068408257
-7.1569741e-05
-0.00055804953
-4.8601968e-05
-0.00042793255
-2.8869619e-05
-0.00028311124
-1.1318589e-05
-0.00011431424
0.00017996284
-0.00082608915
0.00013960151
-0.00071249756
0.00010016152
-0.00059731843
6.5607612e-05
-0.00047171828
3.6235944e-05
-0.00032762057
1.1589104e-05
-0.00014723942
-0.00076075315
-0.00083837858
-0.00091808591
-0.00099326323
-0.0010592348
-0.0011005073
-0.0011244151
-0.0011396825
-0.0011388229
-0.001127417
-0.001105707
-0.0010553218
-0.00093790181
-0.00078248829
-0.00062961927
-0.00047653452
-0.00031198086
-0.00012563283
-0.00068648764
-0.00061233604
-0.00053171082
-0.00043548234
-0.00031603147
-0.00014723942
-0.00099492056
0.00023416741
-0.0011091533
0.00027077474
-0.0012117487
0.00029366281
-0.0012922615
0.0002989983
-0.0013441703
0.00028493556
-0.0013527459
0.00025223852
-0.001332569
0.00020815393
-0.0012925371
0.00015285466
-0.0012283746
8.9551754e-05
-0.001149792
2.2374996e-05
-0.0010641326
-4.1574411e-05
-0.00097171849
-8.3603304e-05
-0.00085674861
-8.1153197e-05
-0.00072156066
-6.092763e-05
-0.00058752153
-4.2097746e-05
-0.00045150639
-2.5028121e-05
-0.00030258601
-9.3948513e-06
-0.00012563283
0.00018948867
-0.00087597631
0.00014271878
-0.00075505482
9.9124006e-05
-0.00063083482
6.1870678e-05
-0.00049735302
3.1276786e-05
-0.00034730825
8.1822748e-06
-0.00015542169
-0.00080543189
-0.00087498591
-0.00094097397
-0.00099859872
-0.001045172
-0.0010678103
-0.0010803305
-0.0010843832
-0.00107552
-0.0010602403
-0.0010417576
-0.0010132929
-0.00094035192
-0.00080271385
-0.00064844916
-0.00049360414
-0.00032761413
-0.00013502768
-0.00073325753
-0.00065593081
-0.00056896415
-0.00046607623
-0.00033912598
-0.00015542169
-0.0010451399
0.000239708
-0.0011616335
0.00028664755
-0.00126286
0.00032188602
-0.0013400649
0.0003414662
-0.0013851469
0.00033997487
-0.0013888082
0.0003209979
-0.0013683504
0.00028801993
-0.0013238796
0.0002394964
-0.0012547765
0.00017925654
-0.0011711575
0.0001109172
-0.0010810625
3.9304857e-05
-0.0009893605
-2.39324e-05
-0.00088720148
-5.315044e-05
-0.00075685031
-4.5863543e-05
-0.00061605632
-3.2392831e-05
-0.00047429563
-1.9308514e-05
-0.00032081594
-6.7981846e-06
-0.00013502768
0.0001875829
-0.00092084043
0.00013643656
-0.00079236737
9.0765013e-05
-0.00065972916
5.3109391e-05
-0.00051918562
2.3667562e-05
-0.00036279354
4.1244877e-06
-0.00015954618
-0.000857557
-0.00092192546
-0.00097621244
-0.0010181789
-0.0010436807
-0.0010488333
-0.0010473525
-0.0010358597
-0.0010152801
-0.00099190092
-0.00097014528
-0.00095005564
-0.00091113388
-0.00081000075
-0.00066191987
-0.00050668846
-0.00034012446
-0.00014182587
-0.00078440387
-0.00070160236
-0.00060661977
-0.00049551806
-0.00035866905
-0.00015954618
-0.0010893504
0.00023179335
-0.0012059126
0.00028398715
-0.0013017174
0.00032550496
-0.0013703139
0.00035213502
-0.0014035475
0.00035986684
-0.0014041982
0.00035536487
-0.0013847774
0.00033742492
-0.0013377582
0.00030189852
-0.0012669797
0.00025169959
-0.001180986
0.00018908511
-0.0010878007
0.00011765539
-0.00099461838
4.4562739e-05
-0.0009005508
-1.0583074e-05
-0.00078431214
-2.5688605e-05
-0.00064202716
-1.9892711e-05
-0.00049468793
-1.200053e-05
-0.00033642667
-3.6977886e-06
-0.00014182587
0.00017541911
-0.00095982298
0.00012183481
-0.00082343717
7.5957697e-05
-0.00068257746
3.9788979e-05
-0.00053530704
1.3909505e-05
-0.00037257856
-2.1466142e-07
-0.00015933152
-0.00091393125
-0.00097411925
-0.0010177302
-0.001044809
-0.0010514125
-0.0010443314
-0.0010294126
-0.0010003333
-0.00096508119
-0.00092928644
-0.00089871557
-0.00087696299
-0.00085598807
-0.00079489522
-0.00066771576
-0.00051458064
-0.0003484272
-0.00014552366
-0.00083798817
-0.00074747947
-0.00064278849
-0.00052139754
-0.00037279322
-0.00015933152
-0.0011107463
0.0001968151
-0.0012185473
0.00024442807
-0.0013050396
0.00028730934
-0.0013675249
0.00032271595
-0.0013991069
0.00034769442
-0.0014017883
0.00035745691
-0.0013820178
0.00035260527
-0.0013342837
0.00033395036
-0.0012638752
0.00029879402
-0.0011771136
0.00024782715
-0.0010822992
0.00018358368
-0.00098727337
0.00011031038
-0.00089690956
4.0921498e-05
-0.00079652571
1.6304958e-06
-0.00066259886
-5.116904e-06