/*--------------------------------*- C++ -*----------------------------------*\
| =========                 |                                                 |
| \\      /  F ield         | OpenFOAM: The Open Source CFD Toolbox           |
|  \\    /   O peration     | Version:  2112                                  |
|   \\  /    A nd           | Website:  www.openfoam.com                      |
|    \\/     M anipulation  |                                                 |
\*---------------------------------------------------------------------------*/
FoamFile
{
    version     2.0;
    format      ascii;
    arch        "LSB;label=32;scalar=64";
    class       volVectorField;
    location    "0.335";
    object      U_0;
}
// * * * * * * * * * * * * * * * * * * * * * * * * * * * * * * * * * * * * * //

dimensions      [0 1 -1 0 0 0 0];

internalField   nonuniform List<vector> 
16200
(
(0.11077571 -0.016599073 8.81303e-28)
(0.1620064 -0.009791589 0)
(0.34024972 0.0063552355 -3.8349137e-21)
(0.071675486 0.00051055459 0)
(0.401557 0.016313202 2.2146285e-21)
(0.42764185 0.025356084 3.5628879e-21)
(0.14891214 0.0011204012 -4.2124756e-21)
(0.53103022 0.028050125 -3.1123027e-21)
(0.30929357 0.0076956091 0)
(0.60191369 0.047768109 -7.9239777e-23)
(0.065086787 0.00096053139 4.6448931e-21)
(0.60514901 0.046615175 3.6357809e-21)
(0.56507629 0.028013405 0)
(0.37498691 0.0075739451 0)
(0.14013872 -0.0014567236 1.8521895e-22)
(0.69691109 0.062478702 -1.2118393e-21)
(0.6545065 0.040053197 0)
(0.49849595 0.01551435 0)
(0.29443489 0.0013260729 6.4043331e-21)
(0.0652653 -0.00014350769 0)
(0.70514978 0.057116273 0)
(0.76478379 0.085692972 0)
(0.67977972 0.03400176 7.8308428e-23)
(0.54201045 0.011432535 7.828876e-21)
(0.36094051 -0.00091582361 -6.1488751e-21)
(0.13883185 -0.0038118749 0)
(0.7669577 0.069034337 0)
(0.81602311 0.097711362 1.3967848e-21)
(0.63190503 0.016667162 0)
(0.76255739 0.042953973 -9.7026453e-21)
(0.48459298 0.0023173768 -8.4156363e-21)
(0.28816684 -0.0047030243 0)
(0.069905792 -0.0014278697 5.2360373e-21)
(0.78475698 0.061698543 1.3404436e-20)
(0.81622837 0.089674594 -1.8137557e-21)
(0.88325468 0.12332522 0)
(0.66836092 0.0065921131 9.814928e-21)
(0.78815356 0.027029981 0)
(0.53255427 -0.0044775047 0)
(0.35625127 -0.0089678205 5.839099e-21)
(0.14376746 -0.0058133153 -9.4961128e-21)
(0.85962048 0.076245158 0)
(0.86924905 0.094197807 0)
(0.93266759 0.12982509 0)
(0.7471421 0.0055323907 -1.1914922e-20)
(0.62544823 -0.0052851091 -1.9519045e-20)
(0.87682827 0.02537059 0)
(0.48017279 -0.010435097 0)
(0.28976509 -0.0098739149 -5.944507e-21)
(0.077808466 -0.0024861887 4.3121972e-21)
(0.9032224 0.071668042 -9.8810038e-22)
(0.92674872 0.11349916 0)
(1.0135393 0.16009069 0)
(0.78587307 -0.011946431 5.5836556e-22)
(0.66782558 -0.017924814 1.0297935e-20)
(0.91225954 0.0021311016 -9.6714422e-22)
(0.9121829 0.055737826 8.6828712e-21)
(0.53282021 -0.018657166 -5.9580024e-21)
(0.35937361 -0.015489422 3.4976582e-21)
(0.15356941 -0.0070559359 -3.9577972e-23)
(0.97295259 0.089055774 -1.1072796e-20)
(0.97876835 0.11169444 9.3372177e-22)
(1.0682757 0.15904178 0)
(0.87323553 -0.022796163 -1.3384949e-20)
(0.750291 -0.02606598 2.1746998e-20)
(0.62990486 -0.024845362 7.4705901e-21)
(1.0246091 -0.010036309 2.8947946e-20)
(1.0115009 0.051667497 -1.6214631e-22)
(0.48433807 -0.021115385 6.039666e-21)
(0.29795216 -0.013763979 -3.4985212e-21)
(0.087892818 -0.0032064605 0)
(1.033041 0.079297703 0)
(1.0597745 0.13554201 0)
(1.1605788 0.19116847 0)
(0.92001709 -0.047454241 2.6591827e-20)
(0.79554798 -0.044451015 -1.2218208e-20)
(0.67745378 -0.038007936 -7.5388645e-21)
(1.057492 0.023642618 -7.1555991e-21)
(1.0704609 -0.045176316 -1.4670496e-20)
(0.54130617 -0.029699806 0)
(0.36907656 -0.01990333 6.6130462e-23)
(0.16668373 -0.0074002378 -2.2848403e-21)
(1.1158082 0.094652328 1.8886806e-20)
(1.1284797 0.12701224 -1.8219472e-21)
(1.2211525 0.18079166 0)
(1.0159642 -0.063302871 -1.5241082e-20)
(0.88367291 -0.060566461 -1.1667478e-20)
(0.76476454 -0.051540162 -7.3931509e-21)
(0.64327799 -0.040071551 3.7440899e-21)
(1.1775926 0.034993101 2.0736722e-20)
(1.1635102 -0.059839495 0)
(0.49545148 -0.028787988 5.497229e-22)
(0.31137812 -0.016034333 -6.6587972e-23)
(0.098878335 -0.0035353991 6.6976789e-21)
(1.1917593 0.075001702 -1.355004e-20)
(1.211787 0.15160454 0)
(1.307684 0.21250238 0)
(1.0713003 -0.092951433 2.9902199e-20)
(0.9370717 -0.083985627 -1.0838056e-20)
(0.81548449 -0.068840495 1.2651186e-20)
(0.69535599 -0.052226472 -2.2912698e-21)
(1.2481553 -0.0038505012 -2.7422504e-20)
(1.2385221 -0.04867702 -2.0294184e-20)
(1.2034755 -0.094770746 -2.2508286e-20)
(0.55618411 -0.036899953 -5.5124656e-22)
(0.38388726 -0.022077959 0)
(0.18143981 -0.0069761453 -4.3827594e-21)
(1.2798184 0.099779865 0)
(1.2812946 0.13930159 0)
(1.3674361 0.19438929 0)
(1.0336552 -0.10486383 -1.2385086e-20)
(1.1709002 -0.11361499 3.434068e-20)
(0.90704719 -0.089181243 9.4431166e-21)
(0.7886708 -0.069316923 -5.2111233e-21)
(0.66323802 -0.0500982 -1.4829636e-21)
(1.3579211 0.0007022534 1.5218178e-20)
(1.324292 -0.079315182 2.3981676e-20)
(1.3022213 -0.11044128 0)
(0.51195213 -0.033239429 0)
(0.3284723 -0.01660908 6.7576246e-21)
(0.10961559 -0.0034866537 0)
(1.3596403 0.081299282 0)
(1.362297 0.16388535 -1.0889072e-20)
(1.4425951 0.22384499 0)
(1.093527 -0.12992661 0)
(1.2238065 -0.14268701 -1.682662e-20)
(0.96520467 -0.1090409 0)
(0.8434788 -0.084082065 -1.1714381e-22)
(0.71905071 -0.060454843 6.2349854e-23)
(1.3768802 0.045122977 0)
(1.4254013 -0.043308291 -1.6858681e-20)
(1.4069979 -0.085052363 0)
(1.3538529 -0.14454889 -1.5523968e-20)
(0.57552217 -0.040309706 -6.6221311e-21)
(0.40197958 -0.022108586 -6.8054799e-21)
(0.19627375 -0.0059431585 3.9840641e-23)
(1.4264565 0.10823367 8.8107088e-21)
(1.4300323 0.14353332 1.1502592e-20)
(1.4958001 0.19652563 -1.9868576e-22)
(1.0632008 -0.13370732 0)
(1.1931886 -0.15427651 0)
(1.3244404 -0.16506896 1.6291126e-20)
(0.93974345 -0.10704721 1.0723766e-21)
(0.81858297 -0.079540988 -3.1267199e-21)
(0.68742013 -0.055101841 0)
(1.4749947 0.047047051 2.0123206e-20)
(1.5071743 -0.037228249 0)
(1.476713 -0.1284288 0)
(1.4541097 -0.16198044 1.1049165e-20)
(0.53198074 -0.034548206 6.6429822e-21)
(0.34734252 -0.015649118 -3.9613714e-23)
(0.11906149 -0.0030912212 0)
(1.4879341 0.087637924 -8.9034129e-21)
(1.4910098 0.16573554 2.0657262e-22)
(1.5392554 0.22259231 0)
(1.127503 -0.15423653 -2.293056e-21)
(1.2555171 -0.18010793 5.4764925e-22)
(1.3830633 -0.19661565 -8.7879325e-21)
(1.0010367 -0.12299639 -9.5660166e-22)
(0.87648785 -0.091352886 9.019035e-21)
(0.74624196 -0.063370201 0)
(1.5226163 0.009137764 -9.1042234e-21)
(1.5612022 -0.077608004 0)
(1.5484815 -0.12565697 0)
(1.5037568 -0.20053693 -1.1546743e-20)
(0.59752879 -0.040251568 1.6425208e-22)
(0.42148603 -0.020250823 -1.3804733e-20)
(0.20978177 -0.0044496827 1.5529995e-20)
(1.5354272 0.10131663 1.0606254e-20)
(1.5404677 0.14055187 0)
(1.5708239 0.18976975 -2.4117027e-22)
(1.1019935 -0.14983035 2.2827078e-21)
(1.2276001 -0.18147291 0)
(1.3526803 -0.20552361 1.7257294e-20)
(1.4668445 -0.21776783 -1.4291905e-21)
(0.97783199 -0.1156161 0)
(0.85160544 -0.083260643 2.9368714e-21)
(0.7138252 -0.055590138 -1.6382133e-22)
(1.5697892 0.021884605 -6.3172455e-21)
(1.596222 -0.067859066 0)
(1.5988008 -0.16605936 -8.0547059e-21)
(1.5671927 -0.21545412 5.0465863e-21)
(0.55368472 -0.032955435 0)
(0.36606373 -0.013366043 2.9796307e-20)
(0.12634609 -0.0024194735 -1.5467199e-20)
(1.5753194 0.068570887 -2.3564556e-21)
(1.5699864 0.15719753 2.4332256e-22)
(1.5881263 0.21743678 0)
(1.1692424 -0.16619907 0)
(1.2951589 -0.20240007 1.4532118e-22)
(1.4157454 -0.23108146 -7.8555146e-21)
(1.5190153 -0.24730912 0)
(1.0415494 -0.1280399 1.9693868e-22)
(0.91207824 -0.09215297 -8.7329628e-21)
(0.77494906 -0.06164345 0)
(1.6009149 -0.016549326 -2.7448525e-21)
(1.6144316 -0.10632394 -2.5376676e-21)
(1.5924255 -0.20503617 2.5261975e-21)
(1.612 -0.1541113 1.2727054e-20)
(1.5904544 -0.24973485 -6.1383115e-21)
(0.62042795 -0.03706092 0)
(0.44058083 -0.016778477 -1.6036204e-20)
(0.22078645 -0.002615376 0)
(1.5948179 0.083726418 -6.7731181e-21)
(1.5948845 0.12672211 0)
(1.5994587 0.18150678 9.4472694e-22)
(1.1467009 -0.15637282 -1.9727793e-22)
(1.2712977 -0.19615663 -3.0312988e-22)
(1.3914646 -0.23063295 1.6872314e-21)
(1.4940846 -0.2543073 3.9073831e-22)
(1.5788709 -0.26090529 0)
(1.0187692 -0.11684741 -1.147615e-20)
(0.88579883 -0.081335653 0)
(0.74069299 -0.05197416 0)
(1.6090288 -0.0015649546 2.6322638e-21)
(1.6134442 -0.090050869 0)
(1.6150322 -0.22328837 -2.4697922e-21)
(1.616389 -0.18477751 -2.8352918e-21)
(1.6106333 -0.25427069 -6.1673496e-21)
(0.57522351 -0.028727688 1.8602988e-20)
(0.38284945 -0.010011081 0)
(0.13083657 -0.0015419972 0)
(1.6077929 0.048114193 -1.0274699e-21)
(1.6012663 0.14699232 -3.0128115e-22)
(1.5931963 0.21010107 -9.1053271e-22)
(1.2163962 -0.16954848 0)
(1.3418798 -0.21330489 5.9757133e-21)
(1.4549558 -0.25023151 -1.7717682e-22)
(1.5443055 -0.27481515 -1.1828971e-22)
(1.6046487 -0.2819869 4.9111535e-21)
(1.0849246 -0.12602875 1.1298072e-20)
(0.9483987 -0.087318864 0)
(0.80338972 -0.055645509 -1.4291431e-22)
(1.6129851 -0.038974126 5.9189026e-22)
(1.6080286 -0.12250828 8.4099194e-22)
(1.6140829 -0.22216054 2.407146e-22)
(1.6057631 -0.16856487 -9.6840988e-22)
(1.6176229 -0.27115059 9.2480688e-22)
(0.64243471 -0.031012206 -3.9045488e-20)
(0.45751884 -0.011976027 2.143992e-20)
(0.22832963 -0.00050206327 0)
(1.6054054 0.069828561 -2.4318765e-21)
(1.6043591 0.11408816 5.4818324e-23)
(1.5887651 0.17415764 0)
(1.1950005 -0.15561629 0)
(1.3210057 -0.20116871 -5.9477058e-21)
(1.4354034 -0.24254002 -1.3538766e-21)
(1.5256475 -0.27255495 2.3016529e-23)
(1.5945009 -0.28624315 -1.2642018e-21)
(1.6143578 -0.28516177 8.0670999e-21)
(1.0611862 -0.11166869 1.700442e-20)
(0.91957837 -0.074215896 -1.9428966e-20)
(0.76630165 -0.044493385 0)
(1.6009903 -0.021821411 -5.8700478e-22)
(1.5815598 -0.10234967 -7.5367071e-21)
(1.6127534 -0.24484321 1.4655643e-21)
(1.5902896 -0.18360489 8.9530286e-22)
(1.6110532 -0.27085431 0)
(0.59473184 -0.022140708 2.0513241e-20)
(0.39613968 -0.0058385187 -4.4280066e-20)
(0.1321823 -0.00048973488 0)
(1.5996245 0.0332538 3.4772167e-21)
(1.5898546 0.13832781 0)
(1.5598775 0.20213344 0)
(1.266247 -0.16451393 0)
(1.3908579 -0.21190916 -1.1649879e-20)
(1.494151 -0.25277266 6.60768e-21)
(1.5694818 -0.28187339 -1.8973373e-21)
(1.6129787 -0.29367609 -3.2836144e-21)
(1.6175612 -0.29317575 2.3926764e-21)
(1.129147 -0.11747439 -1.6977058e-20)
(0.98388 -0.077109032 1.9470942e-20)
(0.82982888 -0.04557175 0)
(1.582829 -0.053871287 3.7953464e-21)
(1.5511458 -0.12457314 8.1461009e-21)
(1.5853008 -0.2388794 3.841149e-21)
(1.5517532 -0.16216073 -1.0742143e-20)
(1.5738152 -0.21694145 -8.1639729e-21)
(1.6032772 -0.28049671 3.9622001e-23)
(0.6617493 -0.022382316 0)
(0.47072341 -0.0060932451 2.281747e-20)
(0.23175399 0.0016293254 0)
(1.5642886 0.049594774 0)
(1.5714425 0.1217495 -1.9715971e-21)
(1.5319781 0.17506775 -2.0713226e-21)
(1.2425509 -0.14515714 0)
(1.3689057 -0.19247155 1.1619155e-20)
(1.4750512 -0.23603022 2.2556748e-21)
(1.5537924 -0.26976458 1.877212e-21)
(1.6067442 -0.2911899 0)
(1.6152018 -0.29534961 -8.9124569e-21)
(1.6050717 -0.29127383 0)
(1.1023104 -0.10013707 8.1144387e-23)
(0.95142158 -0.062041513 2.385693e-20)
(0.78889208 -0.033424868 2.4652551e-20)
(1.5378823 -0.033806166 6.1350307e-21)
(1.4995368 -0.10558479 5.8657088e-21)
(1.5585836 -0.25816875 4.2541563e-21)
(1.5125479 -0.17678238 1.631178e-20)
(1.5229022 -0.20848671 -5.1378982e-21)
(1.5690749 -0.27525418 -2.4090934e-21)
(0.61038423 -0.01350403 -5.8014494e-24)
(0.40464636 -0.00099110001 0)
(0.13019114 0.00067694441 2.4413374e-20)
(1.5560583 0.084546231 0)
(1.5305533 0.0089277493 0)
(1.5337154 0.14842406 2.3753395e-21)
(1.4682062 0.18657198 2.026265e-21)
(1.3098996 -0.14447678 0)
(1.4291196 -0.18848492 -1.6761681e-20)
(1.5226045 -0.22832356 -8.7982105e-21)
(1.587557 -0.26115659 -5.3614866e-21)
(1.6178386 -0.28417078 -3.5442902e-22)
(1.6160743 -0.29430133 5.3624182e-21)
(1.5956657 -0.29205962 -3.4043974e-21)
(1.1696785 -0.1005429 -8.8606252e-23)
(1.0160639 -0.061473721 -2.3841627e-20)
(0.85256381 -0.031717766 -2.4644089e-20)
(1.4939516 -0.062660442 -1.5620102e-20)
(1.4494933 -0.12518275 0)
(1.5048636 -0.24734806 -9.7083853e-23)
(1.4590044 -0.16231718 -1.2588288e-20)
(1.4933713 -0.22203002 0)
(1.5426796 -0.27923496 2.2529121e-21)
(0.67666419 -0.011487749 6.3254325e-24)
(0.47868452 0.00062077687 2.5002024e-20)
(0.23053406 0.0035408046 -4.9024751e-20)
(1.5049116 0.096710092 2.387228e-21)
(1.4765001 0.031013862 -1.2214037e-20)
(1.4941654 0.12880607 -2.4867711e-21)
(1.4296824 0.16072719 0)
(1.2786211 -0.11866053 8.8370963e-23)
(1.4007995 -0.15965521 1.6635541e-20)
(1.4992011 -0.1994541 1.0931108e-22)
(1.5711851 -0.23568404 -1.5067872e-21)
(1.6141268 -0.26722681 3.2887706e-22)
(1.6158034 -0.28693194 -2.4534643e-21)
(1.5986905 -0.29207386 3.3916706e-21)
(1.5538784 -0.28693526 -1.8537555e-21)
(1.1362403 -0.079137895 0)
(0.97800972 -0.044938942 -2.7036047e-20)
(0.80678729 -0.019210331 -6.2986139e-24)
(1.4306305 -0.038784812 -6.306187e-21)
(1.3815617 -0.10414556 -1.4113938e-20)
(1.4670402 -0.25367639 0)
(1.410087 -0.17749314 1.5233766e-20)
(1.4259877 -0.20759714 0)
(1.4823633 -0.26905661 8.5248852e-22)
(0.62056125 -0.0032229391 0)
(0.40744191 0.0041664936 7.4002569e-23)
(0.12447231 0.0017181109 2.4800691e-22)
(1.4708824 0.071927562 0)
(1.4255584 0.0053713002 1.1252936e-20)
(1.4407998 0.13997933 0)
(1.3307834 0.15496566 0)
(1.3317547 -0.10189401 -4.5275753e-23)
(1.4443495 -0.13566661 2.083747e-20)
(1.5324074 -0.17101683 0)
(1.5934646 -0.2063777 1.5341148e-20)
(1.6208155 -0.23960946 0)
(1.6149213 -0.26762337 0)
(1.5869153 -0.2819803 0)
(1.5262547 -0.27986689 5.8372834e-21)
(1.1963112 -0.069214594 0)
(1.0400703 -0.039164526 2.703057e-20)
(0.86933409 -0.014583566 6.7807789e-24)
(1.3718746 -0.061840266 6.3247312e-21)
(1.322899 -0.12182838 0)
(1.3939671 -0.23914106 9.753083e-21)
(1.3374663 -0.15813909 -3.0080628e-21)
(1.3753485 -0.21688337 -6.1994813e-21)
(1.4407117 -0.26535767 -9.2233474e-22)
(0.68572904 0.0010810361 2.6066161e-20)
(0.48058155 0.007714894 -2.5073323e-20)
(0.22450029 0.0054749786 6.3434767e-22)
(1.4075292 0.091268312 0)
(1.3584131 0.033649353 -1.958984e-20)
(1.3948079 0.11782443 0)
(1.288374 0.1314503 2.7852409e-21)
(1.2904377 -0.071027986 0)
(1.4077566 -0.099685497 -4.31759e-20)
(1.5038261 -0.13280479 0)
(1.5748503 -0.16976249 1.2246779e-21)
(1.6153003 -0.20713899 0)
(1.6172261 -0.2405676 -3.2911926e-21)
(1.5922846 -0.26658482 0)
(1.5379174 -0.27509192 -1.3900735e-20)
(1.4590209 -0.26901021 -6.4568351e-21)
(1.1526404 -0.044997156 0)
(0.99412821 -0.021273822 2.8650367e-20)
(0.8173072 -0.0026318542 -2.75519e-20)
(1.2934555 -0.028069807 5.6458044e-21)
(1.2488548 -0.096767078 0)
(1.3401706 -0.23851417 -4.1863755e-21)
(1.2771297 -0.16836849 -1.5363544e-21)
(1.2953913 -0.19726503 8.2814663e-21)
(1.361571 -0.25060133 7.8672429e-22)
(0.624194 0.00782967 -2.6060336e-20)
(0.40383321 0.0092651158 2.408123e-20)
(0.1155187 0.0026678728 2.3609265e-20)
(1.3516404 0.067748855 0)
(1.2870545 0.011467793 2.1021139e-20)
(1.310705 0.1186476 7.8855513e-21)
(1.1689773 0.1157195 -2.7051927e-21)
(1.3260013 -0.038043913 -2.7246456e-20)
(1.4366013 -0.060444257 4.6224565e-20)
(1.5271489 -0.090881865 1.8177301e-20)
(1.5912605 -0.12824248 -2.0763855e-20)
(1.6206397 -0.1680035 0)
(1.6141156 -0.20627528 3.1868302e-21)
(1.5781648 -0.23832685 8.2927977e-21)
(1.508439 -0.25462823 2.8481174e-20)
(1.4147764 -0.25371889 -2.8589834e-21)
(1.1969348 -0.021883269 0)
(1.0472941 -0.0074956076 -2.8668797e-20)
(0.87630562 0.0055557075 2.755353e-20)
(1.2295359 -0.049557938 0)
(1.1819508 -0.10892759 0)
(1.254555 -0.21929958 0)
(1.1975803 -0.14435453 1.3127128e-20)
(1.2331532 -0.1996059 -7.6801664e-21)
(1.3055589 -0.23890416 -5.8817989e-21)
(0.68773006 0.01414081 2.5049278e-20)
(0.4758758 0.014535316 -4.7119609e-20)
(0.21382969 0.007143406 -2.1350258e-20)
(1.2699669 0.080641957 0)
(1.198876 0.033394037 1.887821e-20)
(1.249985 0.097816809 -7.6744225e-21)
(1.1242606 0.096033459 1.7150208e-22)
(1.2759228 -0.0066220815 2.7225518e-20)
(1.3934772 -0.022329598 -2.3750922e-20)
(1.4945195 -0.048673506 1.0891595e-21)
(1.5713495 -0.085009703 1.104716e-20)
(1.6144287 -0.12726434 0)
(1.6182526 -0.16848214 0)
(1.5900174 -0.20629755 1.3986783e-21)
(1.5250547 -0.23523129 -2.0332903e-20)
(1.4358641 -0.24563368 -3.0085431e-21)
(1.3304592 -0.23963722 5.864995e-21)
(1.1437406 0.0020744691 0)
(0.99224689 0.0094314722 -8.5014216e-25)
(0.81725976 0.016237325 1.9852691e-25)
(1.1427733 -0.026066622 -3.9132426e-20)
(1.1078284 -0.080397176 0)
(1.1904131 -0.21170079 0)
(1.1318858 -0.14906583 -1.1733447e-20)
(1.1481535 -0.17579071 -4.7803489e-22)
(1.2154258 -0.2209884 4.7210325e-21)
(0.62059766 0.018770584 -2.5048133e-20)
(0.39387501 0.013918992 2.3042574e-20)
(0.10397843 0.003485976 2.1300456e-20)
(1.188186 0.059392999 -1.013968e-20)
(1.1247626 0.024499661 -3.0002446e-20)
(1.1551288 0.088993938 -1.707916e-22)
(1.0030901 0.079813713 -2.7519704e-21)
(1.2975956 0.035316343 0)
(1.4132523 0.023948396 1.1223634e-23)
(1.5127288 -7.2308263e-05 -3.9517799e-20)
(1.5854026 -0.036303498 1.2969965e-20)
(1.6197821 -0.081128338 4.6454382e-21)
(1.6147373 -0.1276332 -5.6839969e-23)
(1.5755306 -0.17008515 -9.3524322e-21)
(1.4959144 -0.20255259 2.3487203e-22)
(1.3916253 -0.21888548 1.2245844e-20)
(1.2738888 -0.21797841 -1.2734223e-20)
(1.1716386 0.036432184 0)
(1.0310279 0.032325283 2.7142181e-20)
(0.86817802 0.029374072 0)
(1.1276401 0.0047026156 3.2518236e-20)
(1.089721 -0.049553582 1.518312e-20)
(1.0443755 -0.090426594 -1.1929323e-20)
(1.1008511 -0.18932032 0)
(1.0578435 -0.12043433 1.2110195e-20)
(1.0816301 -0.17163796 0)
(1.1508011 -0.20352181 -1.3073341e-20)
(0.68063833 0.027091559 2.2434363e-20)
(0.46465225 0.0204748 0)
(0.19899644 0.0082746707 0)
(1.1081333 0.059651243 1.3610551e-20)
(1.0159156 0.024737873 7.2537196e-21)
(1.0935059 0.071779115 0)
(0.95933106 0.065383317 1.3565624e-21)
(1.241433 0.062751694 0)
(1.3646972 0.058977584 0)
(1.4749343 0.041708452 2.0154303e-20)
(1.5616254 0.010789683 -1.2968575e-20)
(1.6124234 -0.032705238 5.5099218e-22)
(1.6194651 -0.081099266 0)
(1.5922023 -0.12818004 5.6784334e-23)
(1.5202147 -0.1704974 -1.9952134e-22)
(1.4181898 -0.19868534 -2.3476309e-22)
(1.3026318 -0.20809271 1.27039e-20)
(1.1799824 -0.20235081 8.3553313e-21)
(1.1112212 0.055846134 2.7067316e-20)
(0.96912132 0.045095031 -2.7148045e-20)
(0.80338104 0.036629645 0)
(1.0054865 0.0013231599 3.4460913e-20)
(1.0012126 -0.031377951 1.440137e-20)
(0.96970902 -0.063430299 0)
(1.0342281 -0.17624246 0)
(0.99246241 -0.1198599 2.8635286e-22)
(1.004342 -0.14422141 4.9614143e-21)
(1.0575588 -0.18374028 0)
(0.6087077 0.02891231 -2.2438667e-20)
(0.37819607 0.017558202 -1.7879985e-20)
(0.091078771 0.0040764137 0)
(1.0037545 0.047163028 -1.2462306e-20)
(0.94897324 0.010017917 -1.9424351e-20)
(0.98383067 0.03662996 9.9155074e-21)
(0.99385225 0.063225594 0)
(0.8252273 0.050602626 1.2392864e-21)
(1.2552997 0.10721419 0)
(1.3798266 0.10686295 0)
(1.490406 0.092059522 0)
(1.5739085 0.062207622 0)
(1.6176814 0.018870414 -5.199499e-21)
(1.6168817 -0.033010684 0)
(1.5786172 -0.086116759 1.1589829e-20)
(1.4917952 -0.13205628 0)
(1.3755065 -0.16318183 0)
(1.2476011 -0.17774375 0)
(1.1165624 -0.17686641 1.5434194e-20)
(1.1265129 0.094190509 -2.7066886e-20)
(0.99340415 0.073780468 0)
(0.84289498 0.054073611 -2.1187226e-20)
(0.96487443 -0.010158675 -2.9800789e-20)
(0.94247373 -0.039841511 0)
(0.90557337 -0.0668395 1.0357734e-20)
(0.95323454 -0.15158191 0)
(0.92450881 -0.090310608 -1.034672e-20)
(0.93952145 -0.13537502 -4.9895607e-21)
(0.99251082 -0.1628335 0)
(0.6630929 0.039011848 1.8346273e-20)
(0.44732265 0.024851134 1.7880198e-20)
(0.1810498 0.0085889268 1.1101435e-25)
(0.93964961 0.047495963 -2.3210305e-21)
(0.84215635 0.0086415851 -2.5345259e-20)
(0.84107377 0.024454921 0)
(0.78530277 0.04171074 -5.5960387e-21)
(1.1945637 0.12598736 0)
(1.3258721 0.13436862 -2.331657e-20)
(1.446748 0.12825667 0)
(1.5452986 0.10652918 0)
(1.6073181 0.069322687 -6.2572293e-21)
(1.6209716 0.020113642 -5.8022565e-21)
(1.5982103 -0.034429018 -2.3095549e-20)
(1.5223746 -0.088796004 -1.1631068e-22)
(1.4089591 -0.13192958 0)
(1.2815401 -0.15735927 0)
(1.1499956 -0.16599445 -1.541766e-20)
(1.0200096 -0.16056897 0)
(1.0620007 0.10533128 0)
(0.92784702 0.079302856 -2.1229466e-20)
(0.77499503 0.055763742 3.9796628e-20)
(0.84297356 -0.0068333586 1.4224705e-20)
(0.83596754 -0.027500765 1.3231341e-20)
(0.81385911 -0.046559755 -2.1060736e-20)
(0.89039828 -0.13545295 7.4745551e-23)
(0.85971137 -0.086429588 2.1166105e-22)
(0.8736473 -0.10660423 0)
(0.90807951 -0.14206604 8.2038355e-21)
(0.5881885 0.037273117 -1.8355386e-20)
(0.35777118 0.01959958 -1.1029244e-25)
(0.078031897 0.0043314868 -1.0771432e-20)
(0.83343067 0.03827234 -4.2844768e-22)
(0.78506264 -0.00060413927 -2.9243403e-22)
(0.78799046 0.014938672 1.2443833e-20)
(0.78766257 0.027484527 9.3423738e-21)
(0.65666132 0.029158325 1.2014093e-21)
(1.2057473 0.16646245 0)
(1.3405157 0.17797608 2.3316169e-20)
(1.4619626 0.17478374 0)
(1.5574906 0.15566881 1.4009101e-20)
(1.6127635 0.1199887 1.2792121e-20)
(1.6190342 0.070931327 1.06633e-21)
(1.5854732 0.01317792 2.3032105e-22)
(1.4944846 -0.043772967 8.4423903e-23)
(1.3673409 -0.089694648 0)
(1.2290345 -0.11981602 0)
(1.0894207 -0.13384177 -3.0125676e-22)
(0.95817941 -0.13372728 0)
(1.0708349 0.1417992 2.0722673e-20)
(0.94136779 0.10863766 2.1230111e-20)
(0.80323117 0.075024132 -1.8597079e-20)
(0.78482807 -0.016445456 -1.3329747e-20)
(0.771411 -0.03272555 1.1159215e-20)
(0.74642279 -0.047017339 9.633295e-21)
(0.82365537 -0.10990078 -3.4434949e-22)
(0.78029705 -0.061704051 -2.1257025e-22)
(0.81091391 -0.095828458 2.6906304e-22)
(0.84883492 -0.12027757 -8.2269421e-21)
(0.63577755 0.048280209 2.2020754e-25)
(0.42489758 0.027024341 0)
(0.16183296 0.0080749114 1.0800017e-20)
(0.65983497 -0.0031930572 -1.2288627e-20)
(0.66040304 0.008841369 9.8593439e-21)
(0.65899262 0.018822768 5.9249231e-21)
(0.63099645 0.021489661 0)
(0.60405736 0.021174287 1.2533831e-21)
(1.1416535 0.17439792 -6.5554727e-25)
(1.2821368 0.1945222 0)
(1.4134794 0.20060047 0)
(1.523477 0.19148111 -5.2456643e-22)
(1.5980823 0.16573758 -1.3255468e-20)
(1.6217496 0.12304121 6.362731e-21)
(1.6060327 0.069405319 1.1399657e-20)
(1.5303862 0.0091663995 -1.8980428e-20)
(1.4081197 -0.047613599 -8.4539532e-23)
(1.269424 -0.08914758 -2.5458251e-20)
(1.1279825 -0.11352913 -2.3625912e-20)
(0.99050272 -0.12261993 3.016541e-22)
(0.87089685 -0.11799612 0)
(1.0049344 0.14290957 -2.0742638e-20)
(0.87498399 0.10535726 0)
(0.73540146 0.070136633 1.2634549e-20)
(0.65685213 -0.013969228 0)
(0.6478736 -0.024730998 1.0744959e-21)
(0.631134 -0.033782235 0)
(0.76491886 -0.093543085 0)
(0.71333449 -0.056858048 -3.0307241e-21)
(0.74040689 -0.070248905 3.0351199e-21)
(0.78003641 -0.099820082 0)
(0.56039037 0.042535028 0)
(0.33422841 0.019753368 7.7054861e-21)
(0.065865594 0.0042292481 0)
(0.59820955 0.0012796586 -6.8270894e-22)
(0.5951365 -0.0081938295 1.1961886e-20)
(0.59875349 0.011576365 -1.776232e-20)
(0.43350277 0.019453299 -3.1472425e-21)
(0.45617984 0.011753141 -1.2247047e-21)
(1.1543318 0.2065375 1.5590915e-20)
(1.2986665 0.22931191 1.6237259e-20)
(1.4297326 0.238676 -1.0792769e-25)
(1.5357661 0.23344364 -1.2170588e-21)
(1.603919 0.21149813 1.3221151e-20)
(1.6193158 0.17098379 -2.7421528e-21)
(1.5938371 0.11760504 0)
(1.5029806 0.056858076 3.7331078e-20)
(1.3680512 -0.00042336195 2.4170359e-20)
(1.2201271 -0.046178743 2.5607224e-20)
(1.0718606 -0.076399599 4.8919738e-20)
(0.93335195 -0.091564994 1.5157657e-22)
(0.81678243 -0.09267281 1.115591e-22)
(1.0125338 0.17222565 -4.5435514e-25)
(0.88306676 0.13044334 0)
(0.7552736 0.087986849 -1.2634727e-20)
(0.58857312 -0.01752397 -1.1241512e-20)
(0.5757933 -0.025570499 1.020162e-20)
(0.55689841 -0.031533011 0)
(0.69968004 -0.070385032 4.7161358e-21)
(0.60765223 -0.039911526 0)
(0.67645039 -0.060476981 -8.30333e-24)
(0.72669672 -0.080082373 1.1733734e-20)
(0.60161763 0.052950792 0)
(0.39934311 0.026488056 -7.7054643e-21)
(0.14336492 0.0066237524 -3.1756503e-21)
(0.45791067 -0.0012158789 6.7383114e-22)
(0.45410943 -0.0076931235 -1.0801039e-20)
(0.45865971 0.0050851508 8.4945968e-21)
(0.38787429 0.014645892 1.853263e-21)
(0.38676651 0.0055015116 0)
(1.0880756 0.20318767 -1.5605396e-20)
(1.2369624 0.23376217 -1.6246625e-20)
(1.3778497 0.25183832 -2.4477524e-25)
(1.4971896 0.25607199 -1.2255647e-20)
(1.583896 0.24598751 -1.279313e-20)
(1.6201402 0.21599976 1.4670946e-21)
(1.6133943 0.1705179 -9.0479069e-21)
(1.542709 0.11214546 1.5948544e-20)
(1.4165707 0.048917346 -2.4127304e-20)
(1.2682708 -0.0065264168 2.6542052e-20)
(1.1168914 -0.047180644 -2.5432425e-20)
(0.97157967 -0.072130402 9.3047535e-23)
(0.84425495 -0.082545964 -1.5181676e-22)
(0.74604709 -0.078483176 -1.1847009e-20)
(0.94662165 0.16334702 0)
(0.81877643 0.11885958 -8.0180448e-21)
(0.69019345 0.076852928 0)
(0.44661312 -0.013407057 -1.0956108e-20)
(0.4345572 -0.018146365 -1.7510726e-20)
(0.41808423 -0.021288786 -4.9205817e-21)
(0.64046787 -0.056796163 2.6322824e-21)
(0.53350967 -0.034534698 1.5413677e-23)
(0.57994174 -0.042016297 -1.4090916e-21)
(0.66319986 -0.061530471 -7.3217025e-21)
(0.52835386 0.043458789 0)
(0.30987381 0.017799054 0)
(0.05597306 0.0037416311 3.1683451e-21)
(0.38307836 -0.0042007397 -3.3464363e-22)
(0.38631447 0.00086991216 -8.6170787e-21)
(0.376356 -0.0086375558 2.2223094e-20)
(0.21305464 0.010414869 4.2677341e-21)
(0.21988122 0.00041278874 5.4411424e-21)
(1.1048662 0.2238938 0)
(1.2568064 0.25694082 9.068039e-21)
(1.3960979 0.27862035 0)
(1.5106807 0.28708012 0)
(1.5899292 0.28180199 6.3060166e-21)
(1.6175187 0.25570036 -3.7194637e-22)
(1.6019718 0.21404234 9.0483572e-21)
(1.5168745 0.15695853 -3.4252157e-20)
(1.3793117 0.094123784 0)
(1.2239974 0.036846542 -5.8716844e-22)
(1.0672601 -0.0085896309 0)
(0.92084013 -0.039434711 0)
(0.79638587 -0.055685406 -2.0308045e-20)
(0.6989204 -0.057392059 0)
(0.9572935 0.18251442 -2.0728373e-25)
(0.82631829 0.1362394 8.0180147e-21)
(0.70590608 0.090352326 0)
(0.36535197 -0.012469888 9.367303e-21)
(0.35012365 -0.015175023 8.1100896e-21)
(0.33167746 -0.016397925 4.9370365e-21)
(0.5513103 -0.039278523 3.7437796e-21)
(0.39842724 -0.022341807 9.9023282e-22)
(0.50803535 -0.033881728 -2.3635932e-21)
(0.60977113 -0.04590577 -1.1636598e-20)
(0.56503695 0.051583409 -5.8022077e-26)
(0.37337455 0.022954498 -1.0307691e-22)
(0.12764825 0.0042658031 -1.2457135e-21)
(0.21358092 -0.0035217354 3.3429422e-22)
(0.21827815 -0.0017106559 8.0680512e-21)
(0.20574521 -0.0052255427 -1.0711909e-20)
(0.15489369 0.01209236 -5.5711178e-21)
(0.13252291 0.0015261916 -5.8464362e-21)
(0.12473838 -0.00025495873 -8.5394094e-21)
(1.0382838 0.2095138 -3.280648e-21)
(1.1931785 0.24843332 -1.4079778e-20)
(1.3418721 0.27836935 0)
(1.4696152 0.2958556 0)
(1.5649022 0.30003937 0)
(1.6156564 0.28832387 4.2593149e-22)
(1.6169825 0.25630524 0)
(1.5597288 0.20699186 0)
(1.4348619 0.14351279 -9.3660749e-24)
(1.280531 0.080827302 -2.5871717e-20)
(1.1199484 0.027139344 -5.1912014e-23)
(0.9660046 -0.01296023 2.4353147e-20)
(0.83039159 -0.038512892 2.0306244e-20)
(0.72355299 -0.048928191 0)
(0.63494069 -0.044897639 2.4743681e-20)
(0.89303216 0.16495582 0)
(0.76576684 0.11804698 0)
(0.64542856 0.074356342 5.7875181e-26)
(0.19472934 -0.0065682121 1.8925672e-20)
(0.18066081 -0.0072494571 -7.8514491e-21)
(0.16466742 -0.0072507598 -3.1274643e-21)
(0.48342865 -0.029249842 8.0105049e-21)
(0.311707 -0.01593681 -1.0075463e-21)
(0.37740866 -0.020999657 3.1304747e-21)
(0.52535155 -0.031560646 -7.9735622e-21)
(0.49609634 0.039376371 0)
(0.28741091 0.013777459 2.445444e-21)
(0.04961678 0.0028022943 4.2821309e-21)
(0.11957272 -0.0010086123 0)
(0.11266553 -0.0017939086 1.0696549e-20)
(0.10377139 -0.0025121113 -9.884924e-21)
(1.0608099 0.21738414 3.2808599e-21)
(1.2175261 0.2579872 5.6850153e-21)
(1.3629106 0.29133161 1.015756e-25)
(1.4847568 0.31364101 0)
(1.5717597 0.32285144 3.0152038e-21)
(1.6139171 0.31552656 -4.2405808e-22)
(1.608964 0.28919142 0)
(1.5376495 0.24151764 1.1394593e-20)
(1.4024226 0.17983187 4.9457004e-24)
(1.2423783 0.11751001 -2.2298935e-20)
(1.0780043 0.061919674 0)
(0.92309594 0.017727577 -2.4391215e-20)
(0.78977865 -0.012765473 1.9227059e-23)
(0.68331087 -0.028428621 0)
(0.58771104 -0.029289206 -1.316109e-20)
(0.90950348 0.17253456 0)
(0.77726645 0.12602713 0)
(0.66138855 0.081415517 -1.0674115e-25)
(0.093195617 -0.0031463563 -1.1502838e-21)
(0.081988713 -0.0035265391 0)
(0.070974329 -0.0036077379 3.1260545e-21)
(0.35720048 -0.017193117 -1.7764672e-21)
(0.14838791 -0.006523357 -7.0319117e-22)
(0.2921919 -0.013708483 -8.2688055e-21)
(0.46274435 -0.020902216 1.1173281e-20)
(0.53086551 0.043767304 0)
(0.35009663 0.016558206 -2.3422257e-21)
(0.11670349 0.0011090805 1.350036e-21)
(0.99598671 0.1943919 0)
(1.1541004 0.23780712 -6.8248291e-22)
(1.3073768 0.27686694 0)
(1.4419812 0.30785572 7.0646936e-22)
(1.5450521 0.32592475 -3.0156982e-21)
(1.6056532 0.3298738 -3.7805199e-22)
(1.6194318 0.31741184 -6.1849578e-26)
(1.5802661 0.28174908 -2.4358082e-21)
(1.4619164 0.22426386 -1.4851834e-20)
(1.3059963 0.16079574 4.1750289e-20)
(1.1383529 0.10004752 0)
(0.97579532 0.048590319 0)
(0.83108392 0.0097281533 2.2241672e-23)
(0.7144032 -0.014315825 1.792327e-20)
(0.6172879 -0.022973608 0)
(0.50529226 -0.019621064 -1.1173645e-20)
(0.84849079 0.14877974 0)
(0.72180898 0.10378975 1.065736e-25)
(0.60660671 0.062768755 0)
(0.27523123 -0.0098488533 6.9179474e-21)
(0.061171117 -0.00338495 3.3439513e-21)
(0.13347199 -0.0050247779 1.8288458e-21)
(0.34010176 -0.011196367 0)
(0.46775986 0.030423305 -6.2952084e-26)
(0.26955983 0.008051788 -3.2919906e-26)
(0.04755856 0.0014069161 -4.3864075e-21)
(1.023939 0.19119014 2.6763789e-25)
(1.1832682 0.23474087 0)
(1.3320018 0.27541151 0)
(1.4595237 0.31034678 -3.4152844e-21)
(1.5543961 0.33409849 -7.4658381e-22)
(1.6064101 0.34204176 -2.0505891e-22)
(1.6137657 0.3353955 2.5774872e-21)
(1.5618603 0.30368687 -1.5594565e-20)
(1.4347162 0.24912587 1.4850329e-20)
(1.2735347 0.18685109 -3.5825396e-20)