# Probe 0 (0.075 0 0)
# Probe 1 (0.073860581 0.013023613 0)
# Probe 2 (0.070476947 0.025651511 0)
# Probe 3 (0.064951905 0.0375 0)
# Probe 4 (0.057453333 0.048209071 0)
# Probe 5 (0.048209071 0.057453333 0)
# Probe 6 (0.0375 0.064951905 0)
# Probe 7 (0.025651511 0.070476947 0)
# Probe 8 (0.013023613 0.073860581 0)
# Probe 9 (0 0.075 0)
# Probe 10 (-0.013023613 0.073860581 0)
# Probe 11 (-0.025651511 0.070476947 0)
# Probe 12 (-0.0375 0.064951905 0)
# Probe 13 (-0.048209071 0.057453333 0)
# Probe 14 (-0.057453333 0.048209071 0)
# Probe 15 (-0.064951905 0.0375 0)
# Probe 16 (-0.070476947 0.025651511 0)
# Probe 17 (-0.073860581 0.013023613 0)
# Probe 18 (-0.075 0 0)
# Probe 19 (-0.073860581 -0.013023613 0)
# Probe 20 (-0.070476947 -0.025651511 0)
# Probe 21 (-0.064951905 -0.0375 0)
# Probe 22 (-0.057453333 -0.048209071 0)
# Probe 23 (-0.048209071 -0.057453333 0)
# Probe 24 (-0.0375 -0.064951905 0)
# Probe 25 (-0.025651511 -0.070476947 0)
# Probe 26 (-0.013023613 -0.073860581 0)
# Probe 27 (0 -0.075 0)
# Probe 28 (0.013023613 -0.073860581 0)
# Probe 29 (0.025651511 -0.070476947 0)
# Probe 30 (0.0375 -0.064951905 0)
# Probe 31 (0.048209071 -0.057453333 0)
# Probe 32 (0.057453333 -0.048209071 0)
# Probe 33 (0.064951905 -0.0375 0)
# Probe 34 (0.070476947 -0.025651511 0)
# Probe 35 (0.073860581 -0.013023613 0)
# Probe 36 (0.1 0 0)
# Probe 37 (0.098480775 0.017364818 0)
# Probe 38 (0.093969262 0.034202014 0)
# Probe 39 (0.08660254 0.05 0)
# Probe 40 (0.076604444 0.064278761 0)
# Probe 41 (0.064278761 0.076604444 0)
# Probe 42 (0.05 0.08660254 0)
# Probe 43 (0.034202014 0.093969262 0)
# Probe 44 (0.017364818 0.098480775 0)
# Probe 45 (0 0.1 0)
# Probe 46 (-0.017364818 0.098480775 0)
# Probe 47 (-0.034202014 0.093969262 0)
# Probe 48 (-0.05 0.08660254 0)
# Probe 49 (-0.064278761 0.076604444 0)
# Probe 50 (-0.076604444 0.064278761 0)
# Probe 51 (-0.08660254 0.05 0)
# Probe 52 (-0.093969262 0.034202014 0)
# Probe 53 (-0.098480775 0.017364818 0)
# Probe 54 (-0.1 0 0)
# Probe 55 (-0.098480775 -0.017364818 0)
# Probe 56 (-0.093969262 -0.034202014 0)
# Probe 57 (-0.08660254 -0.05 0)
# Probe 58 (-0.076604444 -0.064278761 0)
# Probe 59 (-0.064278761 -0.076604444 0)
# Probe 60 (-0.05 -0.08660254 0)
# Probe 61 (-0.034202014 -0.093969262 0)
# Probe 62 (-0.017364818 -0.098480775 0)
# Probe 63 (0 -0.1 0)
# Probe 64 (0.017364818 -0.098480775 0)
# Probe 65 (0.034202014 -0.093969262 0)
# Probe 66 (0.05 -0.08660254 0)
# Probe 67 (0.064278761 -0.076604444 0)
# Probe 68 (0.076604444 -0.064278761 0)
# Probe 69 (0.08660254 -0.05 0)
# Probe 70 (0.093969262 -0.034202014 0)
# Probe 71 (0.098480775 -0.017364818 0)
# Probe 72 (-0.025 -0.15 0)
# Probe 73 (0 -0.15 0)
# Probe 74 (0.025 -0.15 0)
# Probe 75 (0.05 -0.15 0)
# Probe 76 (0.075 -0.15 0)
# Probe 77 (0.1 -0.15 0)
# Probe 78 (-0.025 -0.1 0)
# Probe 79 (0 -0.1 0)
# Probe 80 (0.025 -0.1 0)
# Probe 81 (0.05 -0.1 0)
# Probe 82 (0.075 -0.1 0)
# Probe 83 (0.1 -0.1 0)
# Probe 84 (0.075 -0.05 0)
# Probe 85 (0.1 -0.05 0)
# Probe 86 (0.075 0 0)
# Probe 87 (0.1 0 0)
# Probe 88 (0.075 0.05 0)
# Probe 89 (0.1 0.05 0)
# Probe 90 (-0.025 0.1 0)
# Probe 91 (0 0.1 0)
# Probe 92 (0.025 0.1 0)
# Probe 93 (0.05 0.1 0)
# Probe 94 (0.075 0.1 0)
# Probe 95 (0.1 0.1 0)
# Probe 96 (-0.025 0.15 0)
# Probe 97 (0 0.15 0)
# Probe 98 (0.025 0.15 0)
# Probe 99 (0.05 0.15 0)
# Probe 100 (0.075 0.15 0)
# Probe 101 (0.1 0.15 0)
# Probe 102 (0.15 -0.15 0)
# Probe 103 (0.2 -0.15 0)
# Probe 104 (0.25 -0.15 0)
# Probe 105 (0.3 -0.15 0)
# Probe 106 (0.35 -0.15 0)
# Probe 107 (0.4 -0.15 0)
# Probe 108 (0.45 -0.15 0)
# Probe 109 (0.15 -0.1 0)
# Probe 110 (0.2 -0.1 0)
# Probe 111 (0.25 -0.1 0)
# Probe 112 (0.3 -0.1 0)
# Probe 113 (0.35 -0.1 0)
# Probe 114 (0.4 -0.1 0)
# Probe 115 (0.45 -0.1 0)
# Probe 116 (0.15 -0.05 0)
# Probe 117 (0.2 -0.05 0)
# Probe 118 (0.25 -0.05 0)
# Probe 119 (0.3 -0.05 0)
# Probe 120 (0.35 -0.05 0)
# Probe 121 (0.4 -0.05 0)
# Probe 122 (0.45 -0.05 0)
# Probe 123 (0.15 0 0)
# Probe 124 (0.2 0 0)
# Probe 125 (0.25 0 0)
# Probe 126 (0.3 0 0)
# Probe 127 (0.35 0 0)
# Probe 128 (0.4 0 0)
# Probe 129 (0.45 0 0)
# Probe 130 (0.15 0.05 0)
# Probe 131 (0.2 0.05 0)
# Probe 132 (0.25 0.05 0)
# Probe 133 (0.3 0.05 0)
# Probe 134 (0.35 0.05 0)
# Probe 135 (0.4 0.05 0)
# Probe 136 (0.45 0.05 0)
# Probe 137 (0.15 0.1 0)
# Probe 138 (0.2 0.1 0)
# Probe 139 (0.25 0.1 0)
# Probe 140 (0.3 0.1 0)
# Probe 141 (0.35 0.1 0)
# Probe 142 (0.4 0.1 0)
# Probe 143 (0.45 0.1 0)
# Probe 144 (0.15 0.15 0)
# Probe 145 (0.2 0.15 0)
# Probe 146 (0.25 0.15 0)
# Probe 147 (0.3 0.15 0)
# Probe 148 (0.35 0.15 0)
# Probe 149 (0.4 0.15 0)
# Probe 150 (0.45 0.15 0)
#         Probe               0               1               2               3               4               5               6               7               8               9              10              11              12              13              14              15              16              17              18              19              20              21              22              23              24              25              26              27              28              29              30              31              32              33              34              35              36              37              38              39              40              41              42              43              44              45              46              47              48              49              50              51              52              53              54              55              56              57              58              59              60              61              62              63              64              65              66              67              68              69              70              71              72              73              74              75              76              77              78              79              80              81              82              83              84              85              86              87              88              89              90              91              92              93              94              95              96              97              98              99             100             101             102             103             104             105             106             107             108             109             110             111             112             113             114             115             116             117             118             119             120             121             122             123             124             125             126             127             128             129             130             131             132             133             134             135             136             137             138             139             140             141             142             143             144             145             146             147             148             149             150
#          Time
         0.0005      -0.4343554     -0.30594063     -0.23238392     -0.16946561      -0.1564989     -0.17387829     -0.21313148     -0.22751604     -0.18896563      -0.1688368     -0.11884795     0.037145211      0.22506841      0.48559528      0.78991035        1.189858       1.4476907       1.6032651       1.6864794       1.5777105       1.3463521       1.0619341       0.6846478      0.32325957    -0.036291311      -0.2841126     -0.41995138     -0.57186003      -0.6251434     -0.66317746     -0.68279021     -0.67833432     -0.69447818     -0.69592794     -0.66327808     -0.55435365     -0.48902284     -0.30474486     -0.17243004    -0.098811248    -0.078044694    -0.088643002    -0.027612601     0.046203763      0.10433994      0.17757292      0.26337222       0.3386208      0.48423457      0.61612983      0.82176303        1.020711       1.1175344       1.2654974       1.3002536        1.237818       1.1255799      0.92100316      0.70886204      0.49948254      0.33253499       0.1894162      0.07208635      -0.1118623     -0.23489235     -0.31149591     -0.44905114     -0.53588018     -0.73582898     -0.80172459      -0.8105889      -0.7068621      0.28975054      0.18589075      0.11207811      0.08257339     0.023821513    0.0015460519     0.080452826      -0.1118623     -0.25431353     -0.28330038     -0.27227106     -0.24216084     -0.78556243     -0.80465686      -0.4343554     -0.48902284     -0.10478452     -0.13222662      0.31519999      0.17757292      0.10671547     0.055676746      0.03519533    0.0078175834      0.46051271      0.42388317      0.38643396       0.2892474      0.25044447      0.22418018      0.10349872      0.19270211      0.26809622      0.30663624      0.32847306      0.18353245      0.13316268     0.015858979      0.35051863      0.42113428      0.27264958      0.30120811      0.17152155     0.056811914     -0.10695781      0.38199744      0.41727056       0.4122825     0.020066519     0.046208832     0.091844939     -0.48619038     -0.59852007    -0.021343417     0.066130019     -0.12219133     -0.19048422     0.094483635     -0.48972874     -0.56437127     -0.13518942      0.10876253     0.068859804     0.060431844      0.17525122    -0.010209101    -0.052734789      0.02985646     0.044417262      0.14709828       0.1712965      0.27055264      0.14987984      0.10370458     0.048734172     0.054203884      0.10007246      0.21585267      0.32506994
          0.001     -0.50374856      -0.3872556     -0.30375593     -0.24344728      -0.2288794     -0.24713887     -0.28171728     -0.29486946     -0.25570807      -0.2386981     -0.18788034    -0.044900635      0.15610719      0.42251867      0.73395246       1.1321985       1.4043492       1.5664212       1.6471774       1.5391573       1.3051053       1.0142447      0.62380468      0.25003961     -0.11522815     -0.36821586     -0.50316703     -0.65145072     -0.70229853     -0.73610154     -0.75651606     -0.75116683     -0.76342793     -0.76550182     -0.72993319     -0.62769031     -0.56623522     -0.36755403     -0.23949808     -0.16484572     -0.14857654     -0.14995879    -0.093790025    -0.016226202     0.042175626       0.1195143      0.19278996      0.27130533      0.41779147      0.55133139      0.76456449      0.96583288       1.0852438       1.2295469       1.2628081       1.2035487       1.0907254      0.88325475      0.62508137       0.4273476      0.26373424     0.079824945    -0.022360351     -0.18913249     -0.31139508     -0.38398109     -0.52022599     -0.60662776     -0.79727115     -0.87768342     -0.88634114     -0.78182724      0.20129248       0.1117265     0.035852251   -0.0026765278    -0.040165262    -0.031479781    -0.028625669     -0.18913249     -0.32997295     -0.34667736     -0.33836322     -0.30786481     -0.84765605     -0.87591361     -0.50374856     -0.56623522      -0.1753622     -0.18471083      0.24419733       0.1195143     0.045273894   -0.0011273333     -0.01684197    -0.023593639      0.40141513       0.3489919      0.31307492      0.24892532      0.21647305      0.19747243     0.022200898      0.20320904      0.29592816      0.42219965      0.38234506      0.20240474       0.1113799    -0.020211474      0.26234883      0.40057392       0.3776183      0.30497698      0.19391622      0.10082318     -0.25557971      0.32308655       0.3310431      0.23086806    -0.042861227      0.00897685     0.070951312     -0.52825566        -0.55872    -0.050929657         0.05173     -0.12359367     -0.19891456     0.049375931     -0.52827988     -0.59557746     -0.18239399     0.068259536     0.043107088     0.011582217      0.13745145    -0.081179418    -0.085630552    -0.018661744     0.052574217      0.10258105      0.16154179      0.26385021      0.12229434     0.085804069     0.040339062     0.026627389     0.081993222      0.20018237      0.30717668
         0.0015      -0.5026601     -0.37836961      -0.2887659     -0.22292292     -0.20556386      -0.2224741     -0.25463646     -0.27260069     -0.23598516     -0.21874042     -0.16955161    -0.025929632      0.17235821      0.43768684      0.74739474       1.1439062       1.4129587       1.5717781       1.6498123       1.5390754       1.3040291       1.0120568      0.62314926      0.25054259     -0.11270051      -0.3655081     -0.50194812     -0.65385564     -0.70938659     -0.74553269     -0.76443078     -0.75695439     -0.76944346     -0.77192474     -0.73528955     -0.62794956     -0.56213701     -0.35664183     -0.22505652     -0.14656683     -0.12831114     -0.12959731     -0.07418986    0.0021714875     0.059965067      0.13699862      0.20972983      0.28775372      0.43291694      0.56509093      0.77680952      0.97543538       1.0932919       1.2352001       1.2667321       1.2054699       1.0911605      0.88304848       0.6253379      0.42821196      0.26456233      0.08125685    -0.021188574     -0.19016426     -0.31396969     -0.38789415     -0.52572856     -0.61260096     -0.80299681     -0.88255131     -0.88372768     -0.78276936      0.20181971      0.11240026     0.035966173   -0.0035278875    -0.041206497    -0.032785445    -0.027575478     -0.19016426     -0.33307133     -0.35023328     -0.34269614     -0.31290621     -0.85273409      -0.8816076      -0.5026601     -0.56213701     -0.15579036     -0.16760838      0.26080747      0.13699862     0.063127147     0.016963417   0.00075729911   -0.0070103864      0.41671729      0.36463928      0.32908574      0.26416797      0.23141481      0.21166298      0.02930119      0.20180698      0.31509273      0.41427527      0.37660999      0.20416561      0.11516632    -0.024754194       0.2715459      0.40577402      0.37747617      0.30479351      0.19485955      0.10073203     -0.26150212      0.32430431      0.33023774      0.23701101    -0.035932084     0.007108894     0.068761491     -0.52211564     -0.56989599     -0.05452778     0.053741433     -0.11984628     -0.20243444     0.046707279     -0.50941215     -0.58485735     -0.17952528     0.070765581     0.046641137      0.01180725      0.13674637    -0.067064326     -0.07384436    -0.011407133     0.056834458       0.1050324      0.16283814        0.265123      0.13490975      0.09618426     0.048121966     0.031276105      0.08422843      0.20229662      0.30940085
          0.002     -0.49785484     -0.37395151      -0.2849514     -0.22061824     -0.20499401     -0.22289308     -0.25583497     -0.27397468     -0.23745054     -0.21952895     -0.17011408    -0.025473015       0.1720031      0.43654789       0.7455641        1.142425       1.4108113       1.5698819       1.6490775       1.5388395       1.3042163       1.0129096      0.62484139      0.25289212     -0.11042544     -0.36319015     -0.49819409     -0.65032291      -0.7038653     -0.74060796     -0.76040468     -0.75279901     -0.76562687     -0.76853565     -0.73298687     -0.62717144     -0.55963409      -0.3536986      -0.2213354     -0.14352479     -0.12597541     -0.12894643    -0.073861182    0.0011590099     0.058822578      0.13576207      0.20870312      0.28692112      0.43232482      0.56454088      0.77587309      0.97434786       1.0921374       1.2337668       1.2656734       1.2048555       1.0908718      0.88290239      0.62651935      0.42975186      0.26629518     0.084660777    -0.016988781      -0.1865392     -0.31000196     -0.38411367     -0.52252244     -0.60976066     -0.80096004     -0.88112468     -0.87968033     -0.78164337      0.20507792      0.11630487     0.039874458   0.00030254368    -0.038138933    -0.030206243    -0.023487715      -0.1865392     -0.32914107     -0.34686829     -0.33991358     -0.31134319     -0.85056958     -0.88230412     -0.49785484     -0.55963409     -0.15358403      -0.1640009      0.25986967      0.13576207     0.062073998     0.016409817    0.0010698561   -0.0067333454      0.41554059      0.36368047      0.32763966      0.26252709      0.22975458      0.20995452     0.034193291       0.2027568      0.31408379      0.40384208        0.371041      0.20555902      0.11915577    -0.023434377      0.27835804      0.41004573      0.37678066      0.30250085      0.19581742      0.10066962     -0.26450546      0.32805974      0.33931912      0.25522459    -0.025869075    0.0075875204     0.069355002     -0.51603769     -0.55704043     -0.05512223      0.06092426     -0.10919959     -0.20261381     0.046884613     -0.50522974     -0.59120614     -0.18482017     0.070253468     0.048672207       0.0108111       0.1360007    -0.068385183    -0.076046998    -0.014031183     0.054865874      0.10365474      0.16126056      0.26353384      0.13315811     0.094676974     0.047115421     0.030013207     0.082727829      0.19967256      0.30491375
         0.0025     -0.49886434     -0.37440087     -0.28356895     -0.21918406      -0.2034866     -0.22126297     -0.25467521     -0.27212818     -0.23572229     -0.21768869     -0.16826066     -0.02307885      0.17398279      0.43834343      0.74690675       1.1438554       1.4114739       1.5699987       1.6487749       1.5379268       1.3028674       1.0115047      0.62339176      0.25150696     -0.11150183     -0.36426042     -0.49918008     -0.65148172     -0.70459814      -0.7413239     -0.76079414     -0.75272681     -0.76555528     -0.76898045     -0.73496265     -0.62924882     -0.56100361     -0.35286997     -0.21916215     -0.14115184     -0.12373146     -0.12739176    -0.072235033    0.0022751491      0.05994425      0.13679148      0.20995914      0.28827826      0.43381781      0.56585262      0.77705682      0.97503291       1.0925147       1.2335946       1.2651455       1.2039339       1.0896007      0.88126324      0.62545987      0.42871479      0.26522073     0.084466243    -0.016931313     -0.18719235     -0.31047634      -0.3845518     -0.52304283     -0.61028231     -0.80160238     -0.88200387      -0.8820128     -0.78460254      0.20482162      0.11624664     0.039809228     0.000197174    -0.038682543    -0.031149822    -0.023513979     -0.18719235     -0.32958382      -0.3473817     -0.34053183     -0.31255105     -0.85097812       -0.885508     -0.49886434     -0.56100361     -0.15176938     -0.16078758      0.26113389      0.13679148     0.063142926     0.017391558    0.0023280969   -0.0056904062      0.41630504      0.36456407      0.32807003      0.26255208       0.2295946      0.20965462     0.032934225       0.2013552      0.30985252      0.39793354      0.36824507      0.20691727      0.12223792    -0.024568792      0.28013615      0.41117378      0.37707198      0.30150779      0.19676112      0.10076598     -0.26892661      0.33144001      0.34222406      0.26468754    -0.019326635    0.0071327667     0.069708736     -0.51461909     -0.55957774    -0.055300624     0.065498996     -0.10123103     -0.20403286     0.046568609     -0.50109996     -0.59497452     -0.18860808     0.069662205     0.049919638    0.0089144795      0.13435013    -0.068649747    -0.077159127    -0.015678357     0.053590118       0.1023498      0.15925583      0.26133317      0.13246874      0.09396829     0.046492866     0.029359255     0.081373676      0.19692909      0.30096957
          0.003     -0.49665996     -0.36995737     -0.28150245     -0.21768822       -0.202384      -0.2202385     -0.25319969     -0.27113125      -0.2346498     -0.21618681     -0.16674429    -0.021199712      0.17576561      0.44003429      0.74826324        1.145298       1.4126211       1.5710798       1.6499814       1.5391848       1.3041749       1.0130959      0.62510281       0.2533588     -0.10948069     -0.36218286      -0.4969508     -0.64917261     -0.70215307      -0.7386323      -0.7580321      -0.7496506     -0.76232971     -0.76580426     -0.73177715     -0.62670855     -0.56050414     -0.35093223      -0.2166607     -0.13868219     -0.12154488     -0.12600654    -0.070953553    0.0031883751     0.060833361      0.13756322      0.21101372      0.28947576       0.4352127      0.56707719      0.77842809       0.9761372       1.0935464       1.2346139       1.2662033       1.2050592       1.0907795      0.88241275      0.62720883      0.43062693      0.26716522     0.087133676    -0.014098483     -0.18477839     -0.30791178      -0.3820398     -0.52067394     -0.60810965     -0.79976484     -0.88083543     -0.88238724     -0.78532861      0.20728021      0.11883151      0.04239443    0.0026967801    -0.036590001    -0.029464908    -0.020735921     -0.18477839     -0.32702681     -0.34511285     -0.33866357     -0.31160877     -0.84896135     -0.88651325     -0.49665996     -0.56050414     -0.15000588     -0.15725402      0.26223435      0.13756322     0.064047695     0.018404891    0.0039075265   -0.0038142743      0.41724077      0.36563237      0.32884603      0.26315877      0.23026336      0.21047311     0.035673428      0.20110494      0.30583653      0.39524978      0.36722811      0.20821611      0.12421321    -0.024412141      0.28102299      0.41193119      0.37761739      0.30140727      0.19772532      0.10061764     -0.26709058      0.33456887      0.34217333      0.27048357    -0.014312567    0.0060234505     0.069473879     -0.51108911     -0.55622053    -0.057095114      0.06872161    -0.094828752     -0.20646628     0.045530666     -0.49486281     -0.59374799     -0.19062696     0.069672985     0.051628194     0.007659461      0.13293316    -0.066921952    -0.075809377    -0.015265546     0.053696142       0.1022314      0.15866159      0.26074056      0.13357665     0.095256874      0.04771371      0.03026431     0.081553215      0.19631039      0.29994259
         0.0035     -0.49681058     -0.36907684      -0.2797895     -0.21574006     -0.20049642     -0.21826665     -0.25116912     -0.26885127     -0.23234692     -0.21378208     -0.16430153    -0.018672645      0.17817839      0.44239029      0.75029455       1.1472245       1.4141637       1.5723013       1.6508698       1.5396581       1.3043393       1.0131914      0.62508563      0.25334041     -0.10943959     -0.36212878     -0.49686672     -0.64904573     -0.70188097     -0.73825258     -0.75750801     -0.74883398     -0.76139299     -0.76515393     -0.73198309     -0.62709389      -0.5609592     -0.34907776     -0.21362954     -0.13559756     -0.11868685     -0.12368869    -0.068669772    0.0052178851     0.062820032      0.13939785      0.21300039      0.29145814      0.43723059      0.56883889      0.78021182      0.97750295       1.0946798        1.235625       1.2669606       1.2055365       1.0910232      0.88240845       0.6274559      0.43089915      0.26737482     0.087763849    -0.013472222     -0.18451451     -0.30758251     -0.38172315     -0.52040937     -0.60797904     -0.79974593     -0.88122617     -0.88385667     -0.78722974      0.20771422      0.11925563      0.04274122    0.0028803113    -0.036845735    -0.030195647    -0.020143251     -0.18451451     -0.32669431     -0.34498879     -0.33885998     -0.31251286     -0.84875207     -0.88880662     -0.49681058      -0.5609592     -0.14761821     -0.15306937      0.26419144      0.13939785     0.066030759     0.020467462    0.0063815003   -0.0010448079      0.41895773      0.36752586        0.330516      0.26470155       0.2318595      0.21219519     0.034294133      0.19872695      0.30617951       0.3929642      0.36681263      0.20998126      0.12651328    -0.026308274      0.27881103      0.41184186      0.37771422      0.30172368      0.19919996      0.10153971     -0.26984791       0.3326992      0.34165025      0.27483044   -0.0098292902    0.0052621444     0.070094142     -0.50929837     -0.55500756    -0.059147331     0.071324562    -0.089241155      -0.2087591     0.045151638     -0.48730452     -0.59185758     -0.19247989     0.069307444     0.052464807    0.0055808798      0.13079987    -0.064167232    -0.073865643    -0.014764698     0.053362596       0.1010877      0.15677893      0.25814371      0.13539175     0.096927436     0.048853889     0.030535265     0.080566021       0.1940377      0.29657319
          0.004     -0.49475909     -0.36684637     -0.27753256     -0.21339182       -0.198502     -0.21641041     -0.24939698      -0.2668449     -0.23030746     -0.21162287     -0.16201339    -0.016232763      0.18063351      0.44485111      0.75253997       1.1494367       1.4161999       1.5742093       1.6526854       1.5413541       1.3059583       1.0148694      0.62677617       0.2550919     -0.10763581     -0.36024824     -0.49489011     -0.64695029     -0.69964838     -0.73586487     -0.75487448     -0.74582077      -0.7580972     -0.76200323     -0.72958284     -0.62501682     -0.55897206     -0.34540839     -0.20937105     -0.13194522     -0.11558201     -0.12131525    -0.066468786    0.0071823055     0.064736117      0.14121484      0.21497554      0.29347223      0.43933128      0.57078442       0.7822603      0.97929729       1.0963772       1.2374028       1.2686842       1.2072056       1.0926524       0.8839631      0.62930682      0.43284332      0.26932629     0.090092469    -0.011141664     -0.18234687      -0.3053147     -0.37942586     -0.51805818     -0.60567438     -0.79732201     -0.87897104     -0.88282331     -0.78634323       0.2098696      0.12142636     0.044860392    0.0048288085    -0.035344826    -0.029202327    -0.017840509     -0.18234687     -0.32441004     -0.34286759     -0.33707065     -0.31149222     -0.84601315     -0.88795173     -0.49475909     -0.55897206     -0.14480108     -0.14823889      0.26616396      0.14121484     0.067951355     0.022522618    0.0088405912    0.0016279952      0.42074414      0.36941426      0.33220652      0.26626386      0.23344198      0.21383953     0.034262826      0.19768788      0.30522998      0.39223151      0.36735236      0.21179133      0.12825611    -0.027141512      0.27754811      0.41240258       0.3784805      0.30260563      0.20074921      0.10203488     -0.28326393      0.33132812      0.34191308      0.27890784   -0.0053935429    0.0042140516      0.07009796     -0.50327468     -0.55113663    -0.060685724     0.073935032    -0.083917164     -0.21122225     0.043991425     -0.48109725     -0.59235911     -0.19466399     0.068975314      0.05348213    0.0037708419      0.12873334    -0.061897438    -0.072951685    -0.014788675     0.053135359      0.10039273      0.15569609      0.25687996      0.13683048     0.098193779     0.049817369     0.030989441     0.080202027      0.19313365      0.29555265
         0.0045     -0.49563915     -0.36706639     -0.27642766     -0.21267278     -0.19807412     -0.21592014      -0.2486304     -0.26607304      -0.2294694     -0.21064891     -0.16099383    -0.015147171      0.18170856      0.44592432      0.75342507       1.1502277       1.4167831       1.5746161        1.652541       1.5409996       1.3054116       1.0142384       0.6260898      0.25443677     -0.10828902     -0.36083463     -0.49543004     -0.64744534     -0.70005505     -0.73618072     -0.75503315     -0.74574643     -0.75787923     -0.76201786      -0.7301861     -0.62618642     -0.56111437     -0.34561857     -0.20870342     -0.13082776     -0.11453616     -0.12058766    -0.065814275    0.0077388224     0.065315383      0.14174262      0.21561973      0.29414305      0.44004073      0.57133885       0.7828513      0.97959916       1.0965639       1.2375604       1.2686293       1.2069274       1.0922177      0.88337694        0.628871      0.43247179      0.26894055     0.089948259    -0.011337068     -0.18266992     -0.30560744     -0.37973125      -0.5183944     -0.60616028     -0.79805367     -0.88015705     -0.88460684     -0.78935403      0.20967793      0.12125448     0.044653359    0.0045433646     -0.03589311    -0.030068271     -0.01805982     -0.18266992     -0.32469615     -0.34329536     -0.33778969     -0.31283665     -0.84650417     -0.89132147     -0.49563915     -0.56111437     -0.14420238     -0.14593359      0.26679919      0.14174262      0.06849494     0.023119192    0.0097290616    0.0027899153      0.42116697      0.36992403      0.33255252      0.26650092      0.23373338      0.21425805     0.033019353      0.19608181      0.30353167      0.39171007      0.36793625      0.21329544      0.12944397    -0.029190864      0.27589613      0.41256831      0.37896025      0.30335824      0.20204568      0.10217839     -0.28744116      0.33089666      0.34185004      0.28217096   -0.0013915587    0.0027487474     0.069679557     -0.50400636     -0.54678061    -0.062486913        0.076062    -0.079298995     -0.21411499     0.042352961     -0.47708804     -0.59227347     -0.19693154     0.068382121      0.05419363    0.0016976162      0.12629822    -0.060710204    -0.072544402    -0.015060505      0.05267668     0.099483014      0.15445772      0.25557794      0.13737998     0.098872458     0.050384004     0.031128612     0.079618984      0.19220649      0.29482996