/*--------------------------------*- C++ -*----------------------------------*\
| =========                 |                                                 |
| \\      /  F ield         | OpenFOAM: The Open Source CFD Toolbox           |
|  \\    /   O peration     | Version:  2112                                  |
|   \\  /    A nd           | Website:  www.openfoam.com                      |
|    \\/     M anipulation  |                                                 |
\*---------------------------------------------------------------------------*/
FoamFile
{
    version     2.0;
    format      ascii;
    arch        "LSB;label=32;scalar=64";
    class       volScalarField;
    location    "5";
    object      p;
}
// * * * * * * * * * * * * * * * * * * * * * * * * * * * * * * * * * * * * * //

dimensions      [0 2 -2 0 0 0 0];

internalField   nonuniform List<scalar> 
16200
(
0.0047227311
-0.0061083188
-0.0059136255
-0.013273965
-0.014360305
-0.0062576544
-0.016469032
-0.017188431
-0.019734727
0.0015192225
-0.020395396
-0.012585208
-0.026543756
-0.024837849
-0.022024498
-0.01383252
-0.031344165
-0.028670219
-0.025467141
-0.022023017
-0.02889828
-0.0064542551
-0.040443851
-0.033877029
-0.027093889
-0.021295171
-0.032881469
-0.013401229
-0.038996538
-0.044934139
-0.031195562
-0.023965098
-0.017727785
-0.044649946
-0.027168227
-0.0066864615
-0.043397132
-0.055073913
-0.032399357
-0.022033485
-0.014016336
-0.046172088
-0.036660339
-0.016428469
-0.049864777
-0.037151569
-0.061175274
-0.025675067
-0.015785213
-0.0075696086
-0.055070428
-0.033277138
-0.0086809951
-0.052078042
-0.036657596
-0.066053593
-0.066329295
-0.022802689
-0.010582134
-0.0013611085
-0.054290342
-0.043862767
-0.020645749
-0.057410743
-0.042179092
-0.026668304
-0.069099674
-0.069032154
-0.01329783
-0.0021399018
0.007196321
-0.064122847
-0.038737377
-0.011351426
-0.055668802
-0.038742271
-0.021925457
-0.075745488
-0.071024676
-0.0070394034
0.0056552978
0.015134762
-0.063317668
-0.048641568
-0.023338531
-0.062602735
-0.043923077
-0.025813434
-0.0095897715
-0.078268457
-0.078426712
0.0040003512
0.015435665
0.025003569
-0.072749137
-0.043175562
-0.012231458
-0.055844908
-0.037338344
-0.01852715
-0.0017021599
-0.080379018
-0.081760894
-0.070819937
0.012724582
0.024899781
0.033860253
-0.071105677
-0.05181023
-0.024198509
-0.042472824
-0.058607561
-0.022550294
-0.0040592237
0.011545942
-0.075792143
-0.075894453
-0.066638206
0.024315668
0.035130005
0.04418153
-0.070412429
-0.044337281
-0.012537539
-0.032368283
-0.049473907
-0.012669027
0.0056696709
0.021354286
-0.076157802
-0.069842451
-0.073812092
-0.059471194
0.034457853
0.045300878
0.053155907
-0.055720468
-0.043889607
-0.017840548
-0.016464945
-0.034831822
-0.048858109
0.0031492017
0.020432816
0.034530826
-0.065049655
-0.062213367
-0.060660649
-0.053948174
0.045735396
0.055220355
0.06305798
-0.052733934
-0.034077243
-0.0096770768
-0.0049671627
-0.024006306
-0.038448811
0.014339974
0.031274161
0.045200218
-0.056877832
-0.049671076
-0.055846553
-0.041700893
0.056326626
0.065191162
0.071435181
-0.044262141
-0.030946535
-0.010442986
0.011539647
-0.0081798241
-0.02599895
-0.037211496
0.030087031
0.0455374
0.057522237
-0.04537135
-0.040811217
-0.035901138
-0.036887903
0.066557909
0.074068834
0.080140114
-0.035351298
-0.022501722
-0.0061417519
0.022965126
0.0033690906
-0.013786181
-0.023873524
0.041245794
0.056503003
0.068142672
-0.030681249
-0.021728832
-0.035583283
-0.022557139
-0.027182854
0.076732083
0.083047512
0.087305758
-0.024028573
-0.014293582
-0.0025539565
0.039345963
0.019603904
-0.00095116629
-0.016714102
-0.023905626
0.056504976
0.069599239
0.078932849
-0.01533606
-0.0050206711
-0.017499112
-0.0036773497
-0.019234429
0.085245012
0.09021353
0.094127077
-0.0096825481
-0.0061073828
-0.0012329851
0.050058011
0.030571229
0.010637198
-0.0051794026
-0.015065577
0.066951494
0.079782345
0.088701952
-0.00029941128
0.011740873
-0.010223261
0.0048415637
-0.01308314
0.094208053
0.097526693
0.099441663
0.0019228772
0.0055636518
0.005440619
0.06575622
0.045420911
0.023219936
0.0036450445
-0.011102593
-0.013109582
0.080885726
0.091230739
0.097286094
0.014725901
0.027603945
-0.0029779506
0.0098319581
-0.0075236938
0.10040295
0.10234577
0.10371244
0.019082107
0.0076119751
0.0042118614
0.07596256
0.055476678
0.032115816
0.010134059
-0.0058060973
-0.01051321
0.090639725
0.10017297
0.10537604
0.030161722
0.037702571
0.0076799738
0.02880984
0.014577421
-0.0065999558
0.10741373
0.10737695
0.10680523
0.030779053
0.011537096
0.010929148
0.08832644
0.068689804
0.04544569
0.021930389
0.0021546988
-0.0085779141
-0.011358945
0.10201387
0.10888929
0.11126254
0.040916358
0.046813729
0.0050496489
0.035406327
0.021588967
-0.0035377103
0.11074254
0.1094081
0.10800341
0.028612723
0.042165328
0.018720003
0.0058353198
0.097932568
0.077041462
0.050976383
0.023721252
0.00060709612
-0.011844568
-0.015940298
0.11119058
0.11657911
0.1172528
0.050913678
0.052220094
0.011311629
0.044162313
0.022933805
-0.0089828248
0.11508548
0.11180177
0.10849488
0.030857823
0.04878939
0.03173124
0.014581434
0.10668511
0.08930839
0.065604839
0.03787325
0.011607976
-0.0075045987
-0.018310476
-0.017903441
0.11723429
0.12122134
0.11953816
0.06010576
0.060192341
0.0064478881
0.044127764
0.030235292
-0.006479321
0.1152797
0.11064784
0.10638149
0.044539835
0.062090387
0.028811729
0.0063570482
0.11399222
0.093993748
0.066915189
0.036117462
0.0070291798
-0.015437596
-0.02791161
-0.028541364
0.1250367
0.1273294
0.12315586
0.067057751
0.059753553
0.01063677
0.050044457
0.02504838
-0.017369786
0.11675477
0.10988073
0.10396755
0.045780457
0.062360052
0.03663275
0.017101009
0.1201816
0.10572871
0.082149399
0.051837049
0.019714116
-0.0088197241
-0.028939093
-0.035110211
-0.030380677
0.12601536
0.12568201
0.12088827
0.066671052
0.063809567
0.00062997434
0.045048204
0.031090844
-0.015232691
0.11336649
0.10554143
0.098576881
0.053808921
0.069873252
0.031724851
0.006097174
0.12282425
0.105868
0.079323796
0.046047543
0.011650856
-0.019051036
-0.040766187
-0.048354862
-0.044189915
0.13039998
0.12942865
0.1221242
0.066821194
0.059151342
0.0051336967
0.049270543
0.021574602
-0.028961552
0.11170541
0.10152552
0.093320091
0.051044171
0.066769683
0.034225316
0.017114121
0.12657093
0.11537053
0.093370242
0.06225648
0.026405754
-0.0088560409
-0.037035527
-0.053503143
-0.055486475
-0.044703106
0.12784683
0.12276085
0.11452924
0.071574153
0.060290602
-0.007706291
0.040214749
0.025911098
-0.0256013
0.10435678
0.094206393
0.084944214
0.057936308
0.059762636
0.028248664
0.0058311915
0.12376436
0.11115824
0.087502513
0.05389652
0.016342856
-0.021518703
-0.051118794
-0.067647262
-0.069870283
-0.059434612
0.12630134
0.12213873
0.11243911
0.071202299
0.065391411
0.051689539
-0.0031402953
0.042189444
0.014010297
-0.039921418
0.099599276
0.087103466
0.077482303
0.053605161
0.06107452
0.030886523
0.018487681
0.12324394
0.11647337
0.098473932
0.069375744
0.032859775
-0.0077684413
-0.04264053
-0.068282894
-0.078406152
-0.073441102
-0.057338375
0.12047146
0.11185006
0.10057409
0.062527271
0.062572977
0.051494118
-0.016814791
0.031116142
0.017383129
-0.035074844
0.088774549
0.077336152
0.066737208
0.044927457
0.060568808
0.054614908
0.031605868
0.0053013063
0.11454019
0.10736934
0.088949467
0.059243004
0.021197949
-0.019940119
-0.056491828
-0.082421179
-0.091991172
-0.086931061
-0.070764441
0.11306954
0.10545682
0.094326494
0.060360226
0.054652552
0.040519934
-0.011676845
0.032185917
0.0049650123
-0.048044483
0.080841938
0.067585953
0.057461719
0.035143089
0.058007168
0.047173717
0.017847667
0.10932417
0.10713652
0.094750011
0.071071837
0.036755678
-0.0042881069
-0.04410406
-0.077547028
-0.095659273
-0.097449026
-0.085841204
-0.065412657
0.10362236
0.092613314
0.079895531
0.059132967
0.053480705
0.040580945
-0.024362847
0.019953917
0.0078722002
-0.041635743
0.067634753
0.056129005
0.045365256
0.031218157
0.057179836
0.050935308
0.039908181
0.012873055
0.094925911
0.093029258
0.081694906
0.059091731
0.024456542
-0.015174519
-0.055834762
-0.089312603
-0.10649416
-0.10784486
-0.096220125
-0.075732213
0.089923392
0.080531242
0.069274857
0.053858485
0.044369715
0.028899197
-0.019091504
0.021498437
-0.0044597272
-0.052077656
0.056826767
0.044567595
0.03521725
0.052164114
0.046968616
0.035627286
0.0097488767
0.026475663
0.085020054
0.087331872
0.081477954
0.065466501
0.03770128
0.0004917783
-0.040381854
-0.078366891
-0.10431885
-0.11317983
-0.10712817
-0.090328714
-0.067953481
0.077291033
0.066241775
0.054072771
0.050479125
0.042468279
0.028698456
-0.029816347
0.0090136617
-0.0013649155
-0.044889259
0.042853541
0.032662568
0.023066411
0.048709858
0.050394391
0.041158645
0.00020080411
0.024511389
0.065814177
0.068972427
0.064962844
0.051508301
0.025166455
-0.0083347102
-0.049665402
-0.085222965
-0.10942864
-0.11795466
-0.11224712
-0.095989462
-0.074422422
0.058580712
0.049481905
0.039705412
0.045244954
0.03427767
0.018538667
-0.025025476
0.010559765
-0.013003112
-0.052707047
0.029960014
0.020424612
0.013208888
0.045534764
0.046973345
0.037963634
0.015664275
0.031309252
0.052302441
0.057999799
0.058880513
0.051685038
0.033452861
0.0051654188
-0.032288545
-0.069534352
-0.10040931
-0.11655403
-0.11752828
-0.1060493
-0.087153207
-0.065951753
0.044274424
0.034988355
0.025478213
0.042436782
0.032450028
0.018053882
-0.034258687
-0.00021129232
-0.0097981846
-0.046190364
0.017043254
0.0095685813
0.0024994142
0.045858661
0.041504592
0.04436062
0.0099902438
0.029431733
0.029789675
0.036633584
0.039955275
0.035913102
0.021653416
-0.0033731109
-0.038729238
-0.07170453
-0.099480142
-0.1141324
-0.11545044
-0.10530851
-0.088169139
-0.069141506
0.022199165
0.015234711
0.0089955733
0.037189075
0.025127676
0.0094288301
-0.029634692
0.00080918808
-0.019618869
-0.051673342
0.0033926928
-0.0019380611
-0.0058632299
0.043995964
0.039504532
0.042856371
0.016531823
0.024343517
0.035164548
0.014277992
0.021927611
0.02835678
0.030354679
0.023287256
0.0065257514
-0.02199693
-0.053544865
-0.085312394
-0.10609358
-0.11391643
-0.10938466
-0.096085606
-0.078929809
-0.061565085
0.0075249025
0.0022492015
-0.0026127742
0.036360542
0.025228565
0.010524558
-0.03696976
-0.0080275575
-0.017139408
-0.045942885
-0.0066839578
-0.010184368
-0.013592283
0.041816482
0.043336158
0.03934108
-0.0093133083
-0.00089881044
0.0081770355
0.01415547
0.011754651
0.00058824621
-0.023748992
-0.05195133
-0.078476655
-0.096869576
-0.10464422
-0.10162128
-0.090752564
-0.07664726
-0.062389027
-0.015096383
-0.017919562
-0.019117259
0.030257051
0.017149134
0.0014317183
-0.033282678
-0.0059517886
-0.024922262
-0.04959195
-0.01933014
-0.019457373
-0.019195382
-0.023837778
-0.016802307
-0.0072515312
0.0022461448
0.0074278921
0.0040941885
-0.011767561
-0.033660184
-0.061231794
-0.083476419
-0.096519492
-0.099082582
-0.092907346
-0.081807489
-0.068715755
-0.056048721
-0.027400728
-0.027842737
-0.02665894
-0.038739451
-0.014919121
-0.022034261
-0.045087155
-0.025165841
-0.023789718
-0.022619093
-0.045972037
-0.038348495
-0.026401834
-0.013184617
-0.0032827927
-0.0014412556
-0.010594832
-0.029819039
-0.051079673
-0.069364722
-0.081395072
-0.085102581
-0.081531197
-0.073718152
-0.064380835
-0.055318627
-0.048206832
-0.045763205
-0.040791921
-0.035375423
-0.029560836
-0.047247377
-0.034974539
-0.029406829
-0.024717959
-0.057889053
-0.052927731
-0.042162649
-0.028139666
-0.014126644
-0.0040231456
-0.0041656231
-0.013865151
-0.033115898
-0.053300522
-0.068439975
-0.07657786
-0.077637626
-0.073332176
-0.066211575
-0.058136187
-0.050439148
-0.05659366
-0.050756724
-0.043144557
-0.04023808
-0.043661332
-0.035599297
-0.028928846
-0.023088798
-0.076642526
-0.071414747
-0.05863849
-0.041002112
-0.021634798
-0.0070214481
-0.00098694554
-0.0093750952
-0.021150425
-0.03574601
-0.049193673
-0.057972345
-0.061298719
-0.060325497
-0.057114364
-0.052814723
-0.048677181
-0.073771046
-0.064750437
-0.053075399
-0.044934363
-0.041117363
-0.030070946
-0.021188352
-0.084337356
-0.083269044
-0.072950182
-0.055680383
-0.035083751
-0.016577875
-0.002371804
0.00035522293
-0.0040950049
-0.018531287
-0.033427299
-0.044869998
-0.051991215
-0.054613624
-0.054054654
-0.051450999
-0.048187299
-0.045515804
-0.07663174
-0.063600144
-0.049428361
-0.036097659
-0.024636313
-0.014726022
-0.097970972
-0.097044931
-0.084871114
-0.064622713
-0.040241347
-0.016855837
0.0033529542
0.0099711996
0.007403004
-0.00099629061
-0.012549396
-0.023734727
-0.032334473
-0.03779993
-0.040825127
-0.042045739
-0.042564721
-0.042823009
-0.088388904
-0.072148416
-0.053847259
-0.03645813
-0.020756632
-0.0083549731
-0.099394246
-0.10454772
-0.09722379
-0.079132969
-0.054182569
-0.02778982
-0.003686507
0.010842429
0.017967324
0.014831149
0.0034978351
-0.0083416008
-0.019159935
-0.027606137
-0.033254026
-0.036443925
-0.038097515
-0.040099067
-0.084193968
-0.064091916
-0.044084392
-0.026067296
-0.010730478
0.0022808629
-0.10631646
-0.11202867
-0.10337561
-0.082388181
-0.053658669
-0.022956595
0.0039881914
0.023681794
0.031925092
0.030780369
0.024130076
0.01278594
0.0012808743
-0.0089637349
-0.017372257
-0.02388044
-0.029065483
-0.033691669
-0.088993913
-0.065942292
-0.042415492
-0.020935127
-0.0021577091
0.012261442
-0.099635216
-0.11264934
-0.11124427
-0.095369123
-0.068475833
-0.03636164
-0.0050685421
0.020546333
0.036360542
0.043213647
0.038611665
0.027903337
0.015950251
0.0039883431
-0.0063944639
-0.014615493
-0.020991845
-0.027488949
-0.077054507
-0.051255925
-0.027079005
-0.0061917237
0.011329731
0.026134292
-0.098568862
-0.11236741
-0.11051942
-0.092636253
-0.062579771
-0.026616772
0.0068591776
0.035055368
0.052499593
0.058778669
0.057280133
0.048261752
0.03579976
0.022753083
0.010502509
-0.00029213314
-0.0094775787
-0.017940981
-0.074208892
-0.046192225
-0.019425172
0.0038980753
0.023732341
0.03859178
-0.083706476
-0.10434635
-0.11108347
-0.10101834
-0.075774735
-0.041053421
-0.005397049
0.028074
0.052619735
0.067120856
0.070187273
0.062100631
0.050328571
0.036855653
0.023505111
0.011588372
0.0013926244
-0.0090513065
-0.055460448
-0.026157508
-0.0001430602
0.021277239
0.039256804
0.05435766
-0.074643466
-0.095783677
-0.10227333
-0.09144872
-0.063774541
-0.027161741
0.0099644353
0.044355982
0.069985912
0.083685379
0.085858473
0.081351711
0.069126459
0.054770365
0.040208814
0.026482102
0.014323533
0.0028631543
-0.045584663
-0.014864634
0.012315782
0.034977321
0.054060206
0.068075394
-0.053402709
-0.0800513
-0.095117228
-0.092658089
-0.072908866
-0.039880738
-0.0025387925
0.034357054
0.065354444
0.086449537
0.096902013
0.094118794
0.082550095
0.068877677
0.054015269
0.039798088
0.02692343
0.013576239
-0.021866716
0.0081230742
0.033158353
0.053251128
0.070263759
0.084351201
-0.038294845
-0.064800672
-0.079419346
-0.077235909
-0.056629174
-0.023364007
0.014649179
0.052372275
0.083550122
0.10366122
0.11103834
0.10910891
0.099548947
0.085155086
0.069578056
0.054217359
0.04027364
0.026820212
-0.0063203722
0.023401582
0.048397681
0.068934024
0.085943417
0.098112314
-0.013037689
-0.043694188
-0.06516049
-0.071645795
-0.060381209
-0.034835304
0.0030455853
0.041036499
0.075640247
0.10181508
0.11716561
0.12119991
0.11179021
0.098159479
0.083149548
0.067861636
0.053491284
0.038440216
0.018786786
0.046588827
0.069068685
0.086673335
0.10156127
0.11360002
0.0055712747
-0.025133099
-0.046874651
-0.052465321
-0.041050175
-0.016254879
0.020056539
0.058653121
0.09297947
0.11810826
0.13106779
0.13175274
0.1259148
0.11237346
0.096786827
0.080939102
0.066329611
0.05197422
0.036408125
0.063386201
0.085409464
0.10283122
0.11672329
0.12634965
0.031003835
-0.00057292573
-0.027531654
-0.042388448
-0.040259364
-0.023210942
0.0097308086
0.045587084
0.082529862
0.11249771
0.13203847
0.14076636
0.13738149
0.12379399
0.10923497
0.093935942
0.079144813
0.063595723
0.060686764
0.085423656
0.10459111
0.11883847
0.1306491
0.13992501
0.048972134
0.018408016
-0.0084384605
-0.024210473
-0.022357094
-0.0064248134
0.024397003
0.060329635
0.096390554
0.12562567
0.14351031
0.14877877
0.14498307
0.13483853
0.12022074
0.10491871
0.090642148
0.076457878
0.077953212
0.10219479
0.12064398
0.13414728
0.14412523
0.15077112
0.073597154
0.042717368
0.012228733
-0.010603274
-0.021242877
-0.0097732569
0.014346393
0.045708719
0.083161751
0.11591562
0.13959611
0.15187916
0.15503425
0.14473713
0.13060133
0.11639077
0.10216549
0.08727275
0.10083046
0.12204118
0.13720238
0.14743166
0.1553978
0.16149398
0.089360185
0.058773652
0.029491297
0.0077333008
-0.0051705764
0.0013703318
0.023824559
0.054708994
0.09089693
0.12323373
0.14670699
0.15712299
0.15771627
0.15107216
0.13849684
0.12462241
0.11157598
0.098605626
0.11643137
0.13715433
0.15167049
0.16075251
0.1662691
0.16959995
0.11265311
0.081281646
0.04836349
0.020324954
0.0012443012
0.0016245797
0.015030582
0.040214188
0.075019924
0.10904311
0.13747092
0.15508333
0.16377702
0.159466
0.14649821
0.13377165
0.12105777
0.10791084
0.13709797
0.15425344
0.16486179
0.17048081
0.17412184
0.17656859
0.12630543
0.094810769
0.060666095
0.029986057
0.010217088
0.0073186599
0.017219132
0.041120241
0.075002585
0.10928591
0.13809126
0.15620639
0.16195858
0.15814789
0.15023066
0.13867263
0.12772592
0.11696811
0.1506315
0.1671
0.17653253
0.18069748
0.18160786
0.18150555
0.14406234
0.11382993
0.079682734
0.046281556
0.021115604
0.0090817351
0.0093917913
0.026614374
0.055959701
0.090330332
0.12277808
0.14704698
0.1601848
0.16355625
0.15566279
0.14475977
0.13447107
0.12406536
0.16698164
0.18040445
0.18581545
0.1864308
0.18544374
0.18394947
0.1569836
0.12448603
0.086442296
0.048809019
0.018671415
0.0041147957
0.0034820146
0.019899309
0.048545524
0.083105732
0.11647877
0.14193639
0.15484243
0.15690592
0.15401051
0.14609455
0.13772378
0.13010748
0.17966939
0.19141814
0.19446368
0.19271578
0.18909717
0.18516763
0.16957069
0.1418877
0.10641386
0.067483312
0.033658692
0.0094481093
-0.001615142
0.0052254203
0.028224001
0.06021997
0.095183543
0.12584199
0.14663033
0.15661664
0.15650827
0.14839052
0.14119228
0.13454328
0.18809414
0.19737146
0.19871882
0.19400747
0.18830508
0.18274893
0.17681455
0.14616876
0.10760539
0.065353633
0.027417038
-0.0021795673
-0.015613001
-0.0098688659
0.012497647
0.045887799
0.082233097
0.1145614
0.13674002
0.1459868
0.14810305
0.14563827
0.14111146
0.13700504
0.19780149
0.20673521
0.20498768
0.19656375
0.1874698
0.17976664
0.1879657
0.16330812
0.12795619
0.085883851
0.043136253
0.0067678109
-0.016505161
-0.020297319
-0.0076251165
0.020472673
0.056325047
0.09202657
0.12086685
0.13873581
0.14686893
0.14500025
0.14124218
0.13843517
0.2007957
0.20431865
0.2008451
0.19239822
0.18205836
0.17245318
0.18895138
0.16169871
0.123807
0.079201625
0.034166644
-0.0051261753
-0.031101871
-0.038644528
-0.027157658
0.00081786109
0.0383448
0.075939859
0.10661477
0.12496174
0.13353372
0.13704934
0.13721409
0.13703896
0.20370834
0.20860849
0.20378969
0.19115999
0.17681836
0.16537156
0.19723609
0.1765217
0.1430388
0.10025539
0.05374214
0.0087611872
-0.026238624
-0.045711608
-0.043995765
-0.023822567
0.0095654098
0.048571975
0.084209949
0.11080677
0.1268846
0.13271063
0.13349793
0.13515115
0.20419604
0.20140736
0.19251853
0.18038769
0.16664975
0.15340572
0.19018988
0.16831937
0.1337473
0.089696057
0.041992661
-0.004580377
-0.04144768
-0.062301529
-0.062492509
-0.043542429
-0.010196873
0.029825222
0.067225471
0.094708355
0.11069158
0.12033161
0.12571667
0.12977704
0.19930451
0.19786137
0.18941234
0.17475384
0.15701953
0.14291139
0.19262492
0.1770684
0.14857369
0.10872364
0.061278705
0.013037397
-0.029616727
-0.061445536
-0.073871627
-0.065021539
-0.037857011
1.885715e-05
0.040145043
0.074170743
0.098250006
0.11202594
0.11830601
0.12440669
0.19529892
0.18687377
0.17355853
0.1582697
0.14243304
0.12691755
0.17795763
0.163096
0.13523733
0.095649028
0.048214077
-0.0015052039
-0.045329495
-0.077669214
-0.090414705
-0.08187851
-0.055494207
-0.017813961
0.02254232
0.057268677
0.080899339
0.096500501
0.10728362
0.11532355
0.18074132
0.17469477
0.16294275
0.14715635
0.12864195
0.11357957
0.17263352
0.16422516
0.14380021
0.11072593
0.067093617
0.017830748
-0.029597798
-0.069542562
-0.093013066
-0.096807428
-0.079480501
-0.046200298
-0.0061546055
0.03262525
0.063273738
0.084302586
0.09654941
0.10719421
0.17069837
0.15989
0.14394835
0.12720045
0.11093409
0.095050374
0.15070314
0.14442951
0.12615967
0.094798799
0.053068034
0.0054951449
-0.042315965
-0.082804262
-0.10752553
-0.11068996
-0.093089995
-0.060500827
-0.021168489
0.017057802
0.046691499
0.067610231
0.083070113
0.09500107
0.14781135
0.13834389
0.1254051
0.11060475
0.093961836
0.080350195
0.13798839
0.1373963
0.12674627
0.10388992
0.068645872
0.024089139
-0.023209146
-0.068702725
-0.10182741
-0.11689291
-0.11041925
-0.084762985
-0.047888539
-0.0086464098
0.026005029
0.052294327
0.069854604
0.084494186
0.13139819
0.11996373
0.10499054
0.089845446
0.075411528
0.061621085
0.10938408
0.11161639
0.10457407
0.085783207
0.05298212
0.013277485
-0.033171514
-0.076695849
-0.11052373
-0.12563709
-0.11864424
-0.093584283
-0.058009159
-0.020645928
0.012247457
0.036693905
0.055426114
0.0702834
0.10144095
0.091173996
0.08031993
0.069028472
0.057031676
0.047576304
0.090028786
0.096652942
0.096649068
0.086276503
0.063152731
0.029034959
-0.013603847
-0.057937833
-0.097460072
-0.12222939
-0.12706559
-0.11087255
-0.080143995
-0.043643077
-0.0088702909
0.019867409
0.040998754
0.058488653
0.080712393
0.070898665
0.060647936
0.050402038
0.040729195
0.031739972
0.056278254
0.066209055
0.070739117
0.065513592
0.0472853
0.019799743
-0.020685646
-0.059466718
-0.097244289
-0.12276505
-0.1269984
-0.1119492
-0.083264174
-0.049468349
-0.017869384
0.0076484508
0.027569686
0.043794648
0.045831736
0.037804994
0.032324327
0.027944385
0.023561199
0.020509252
0.032884484
0.044416701
0.054439874
0.057588064
0.048725546
0.030415571
-0.0021094948
-0.03918011
-0.078383145
-0.10925363
-0.12462782
-0.11998859
-0.098126948
-0.067506622
-0.03602301
-0.0083698789
0.013655658
0.032137756
0.023405282
0.018098663
0.016432693
0.014957682
0.012824344
0.010948517
-0.0035671195
0.010943021
0.026299102
0.036189913
0.03368729
0.021073191
-0.0053781024
-0.036049661
-0.069836036
-0.099218084
-0.11384884
-0.11060774
-0.09207764
-0.065518362
-0.038630211
-0.015328893
0.0033368416
0.018885201
-0.012927656
-0.014641285
-0.010429901
-0.0049297671
-6.8967177e-05
0.0049918542
-0.027079091
-0.014243666
0.0024936421
0.018379593
0.027378025
0.023527385
0.007504647
-0.016577084
-0.049017349
-0.078735579
-0.10057565
-0.10758764
-0.097405239
-0.076132422
-0.051306195
-0.027940957
-0.0080958698
0.0088906543
-0.032181716
-0.028023002
-0.018685467
-0.009766458
-0.003242658
0.0033329076
-0.061203656
-0.046071864
-0.024311492
-0.0027058103
0.012259516
0.017060249
0.0080523249
-0.011732945
-0.034980702
-0.060708055
-0.080818659
-0.087742056
-0.081171879
-0.065044206
-0.045990339
-0.028250727
-0.013428848
-0.00080853107
-0.064887554
-0.055977199
-0.03969104
-0.023204006
-0.0088883661
0.0027644681
-0.080145243
-0.069598865
-0.049713607
-0.026315021
-0.0043569273
0.01147725
0.014400999
0.0032502717
-0.015319543
-0.038704036
-0.05995749
-0.074311828
-0.076088138
-0.066610209
-0.051436312
-0.035308682
-0.020385119
-0.0074854388
-0.076623006
-0.059433857
-0.037504752
-0.018325149
-0.003241733
0.0092499175
-0.10771767
-0.096326232
-0.072485926
-0.043022775
-0.014059733
0.0063777619
0.016733547
0.0089518653
0.0009023143
-0.015877242
-0.034306075
-0.047174989
-0.051339789
-0.046912923
-0.038106812
-0.028293131
-0.019450907
-0.011719739
-0.10106757
-0.078135564
-0.049286738
-0.023048112
-0.0010424068
0.015380743
-0.11741975
-0.11438009
-0.095003477
-0.06668954
-0.036508546
-0.0095176489
0.012630639
0.020469593
0.018634581
0.0037776123
-0.011755866
-0.027034822
-0.037335915
-0.039479473
-0.035397294
-0.028493455
-0.020695149
-0.01405967
-0.10012622
-0.068613979
-0.035802295
-0.0090785153
0.01155006
0.028106085
-0.13239024
-0.13023892
-0.10840188
-0.076235226
-0.04129679
-0.0087798315
0.019280374
0.031703565
0.033824103
0.02838663
0.016459549
0.0031712534
-0.0074319559
-0.013403679
-0.015166016
-0.014661995
-0.013393077
-0.01174493
-0.11142203
-0.074704311
-0.036592119
-0.0045928606
0.02121546
0.03960834
-0.12769973
-0.1383205
-0.12556053
-0.096764562
-0.061478795
-0.026076735
0.0060754285
0.029249317
0.044387572
0.045520328
0.036923752
0.025412384
0.012588052
0.0018837524
-0.0048444918
-0.0077678827
-0.0082421349
-0.0090910086
-0.095139268
-0.052729044
-0.014111968
0.015716077
0.038346023
0.056618886
-0.12720394
-0.13927567
-0.12557676
-0.094858212
-0.057251745
-0.018756323
0.016041177
0.045299513
0.060239524
0.067172332
0.064671923
0.054613153
0.042192412
0.030007427
0.019603905
0.011218404
0.0047721343
-0.00066286245
-0.09141782
-0.046447076
-0.0047741031
0.027727727
0.053287873
0.071344255
-0.10629759
-0.13257775
-0.13259204
-0.10919354
-0.074111247
-0.035471036
0.0024708798
0.037547465
0.062547681
0.078787731
0.08020285
0.074058816
0.062776197
0.048662435
0.035314533
0.024136585
0.015782593
0.0075262429
-0.063003578
-0.016593586
0.021993407
0.050350293
0.072469782
0.09051567
-0.090723179
-0.1177825
-0.11947486
-0.097339832
-0.062103211
-0.021717625
0.019041423
0.055469454
0.082612618
0.099364647
0.10625112
0.1016885
0.090389351
0.075731175
0.060412605
0.045584049
0.032657164
0.020984747
-0.047514956
-0.00066748106
0.037290002
0.066594489
0.090069275
0.10657749
-0.060295431
-0.096851905
-0.11167684
-0.10149057
-0.07307023
-0.035303959
0.0051709635
0.045857536
0.079908554
0.10504367
0.11812768
0.11715182
0.10916453
0.095161217
0.078513884
0.062273537
0.048036151
0.033351956
-0.013636891
0.030064801
0.063956108
0.089147257
0.10947433
0.12593083
-0.036762168
-0.072379781
-0.088775222
-0.082070519
-0.05552936
-0.017374014
0.02451808
0.066856055
0.10268528
0.12670836
0.14000228
0.14368201
0.13466299
0.1199666
0.10244402
0.083980298
0.066846744
0.05046017
0.0085418053
0.049258379
0.081961467
0.10726965
0.12759785
0.14191861
-0.003612996
-0.044462739
-0.070463456
-0.074883315
-0.05809378
-0.026689518
0.012742314
0.054398333
0.094672555
0.12753044
0.15019761
0.15568597
0.15026545
0.13828442
0.12110196
0.10231667
0.08449275
0.065441011
0.040534241
0.07761725
0.10655233
0.12814216
0.1459487
0.16024788
0.021147488
-0.018483733
-0.045140346
-0.052282381
-0.038250487
-0.0074773505
0.032944683
0.076753094
0.11855869
0.14987193
0.16920446
0.17693313
0.17347907
0.16016696
0.14249042
0.12265778
0.10351362
0.084329104
0.061915258
0.097010072
0.12489766
0.14620124
0.16319291
0.17521961
0.051641614
0.010783799
-0.021676165
-0.037938141
-0.034266371
-0.012438155
0.022046369
0.064489877
0.10764329
0.14522654
0.17249545
0.18913727
0.18593194
0.17570553
0.1600645
0.14089266
0.12151653
0.10032009
0.090297967
0.12213817
0.14663952
0.16475485
0.17979823
0.19172315
0.072096514
0.033104683
0.00035398143
-0.017411214
-0.014845242
0.0061821443
0.040806986
0.08457477
0.12967935
0.16825014
0.19217025
0.20418136
0.20577321
0.19484069
0.17817986
0.1586908
0.13933471
0.11924575
0.10899465
0.13979484
0.1637622
0.18157016
0.19532868
0.20507756
0.099591733
0.061128046
0.025155562
0.00034506701
-0.0073796699
0.0032211868
0.031182727
0.070497586
0.11531787
0.15771777
0.19040887
0.21124293
0.21782726
0.20735074
0.19341995
0.17542377
0.15618681
0.13485129
0.13411766
0.16192658
0.18279781
0.19771303
0.20977653
0.21918511
0.11470868
0.077421661
0.042071046
0.016769471
0.008291286
0.018403023
0.045648419
0.085682777
0.13241307
0.17712391
0.20915385
0.2243733
0.22893901
0.22320972
0.20802771
0.1899481
0.17170724
0.15240598
0.14904662
0.1771682
0.19805068
0.21269396
0.22314515
0.23040627
0.14019252
0.10335562
0.065935817
0.034584094
0.016937172
0.015345687
0.036079549
0.069820312
0.11398365
0.16040916
0.19980495
0.22583827
0.23899067
0.23393924
0.21988391
0.2041346
0.18631447
0.16656287
0.17232917
0.19712685
0.21470589
0.22636213
0.23502078
0.24150828
0.15086943
0.11337986
0.076382669
0.047621005
0.02990715
0.02549398
0.042701279
0.076862694
0.12223303
0.17108174
0.21339551
0.23669202
0.24303204
0.24233998
0.23084785
0.21485916
0.19870361
0.18163701
0.18385157
0.20946724
0.22774127
0.23915657
0.24589956
0.25004818
0.17563681
0.13766007
0.09741584
0.062332102
0.033476295
0.026332741
0.03491102
0.059098315
0.1002485
0.14798226
0.19442759
0.22915446
0.24697342
0.25253775
0.23944368
0.22553491
0.21030289
0.19346563
0.20603514
0.22820398
0.24230981
0.24999071
0.25462613
0.25743434
0.18372001
0.14522604
0.10498731
0.067986745
0.03744824
0.028211142
0.035269281
0.056920738
0.098069165
0.14734934
0.19701245
0.23437614
0.24767991
0.25022043
0.24537446
0.23216425
0.2189358
0.20517329
0.215352
0.23840887
0.25266881
0.25996855
0.26239598
0.26294611
0.20379867
0.16514498
0.1231921
0.082147794
0.04943887
0.030824102
0.02730368
0.041166963
0.07419019
0.11879938
0.16933015
0.21434303
0.2435432
0.25563131
0.25231278
0.23853018
0.22681758
0.21391224
0.2351823
0.25526412
0.26490273
0.26747547
0.26700609
0.26549889
0.21297327
0.17190471
0.12564727
0.081582883
0.044914257
0.022055538
0.016217462
0.028642474
0.060979665
0.10702587
0.16043001
0.20958863
0.23896991
0.24721036
0.24809375
0.24057854
0.23107552
0.22141647
0.24504866
0.26487355
0.27308259
0.27383587
0.27110031
0.26698009
0.22943095
0.1907413
0.14562241
0.099178886
0.059436879
0.029773472
0.012345584
0.01387274
0.034381734
0.073777822
0.12477704
0.17816978
0.22069483
0.24420575
0.25202619
0.24307109
0.23479911
0.22675449
0.2579595
0.2752751
0.28073782
0.27699862
0.27043847
0.26377081
0.23413111
0.19042358
0.14229516
0.093040718
0.049406941
0.015331769
-0.006815432
-0.0093133522
0.010298746
0.05093282
0.10535162
0.16312632
0.20961715
0.22958222
0.23822243
0.23879324
0.23393523
0.22924702
0.26700718
0.28541144
0.28801904
0.27998374
0.26968117
0.26011131
0.25022205
0.21131665
0.16374356
0.11473576
0.065840783
0.02483487
-0.0054009048
-0.019047017
-0.012019684
0.015799959
0.063942448
0.12215055
0.17717724
0.21607478
0.2349793
0.23771177
0.23273706
0.23045914
0.27483801
0.28593168
0.28556901
0.27626747
0.26288642
0.25063811
0.25021086
0.20712591
0.15606842
0.10362184
0.053418531
0.0087967142
-0.025090119