# Force coefficients
# dragDir       : (1.00000000e+00 0.00000000e+00 0.00000000e+00)
# sideDir       : (0.00000000e+00 0.00000000e+00 -1.00000000e+00)
# liftDir       : (0.00000000e+00 1.00000000e+00 0.00000000e+00)
# rollAxis      : (1.00000000e+00 0.00000000e+00 0.00000000e+00)
# pitchAxis     : (0.00000000e+00 0.00000000e+00 -1.00000000e+00)
# yawAxis       : (0.00000000e+00 1.00000000e+00 0.00000000e+00)
# magUInf       : 1.00000000e+00
# lRef          : 1.00000000e-01
# Aref          : 4.47575700e-03
# CofR          : (0.00000000e+00 0.00000000e+00 0.00000000e+00)
#
# Time          	Cd              	Cs              	Cl              	CmRoll          	CmPitch         	CmYaw           	Cd(f)           	Cd(r)           	Cs(f)           	Cs(r)           	Cl(f)           	Cl(r)           
0.0005          	4.69670949e-02	-6.03639056e-21	-9.45320498e-02	-4.07134075e-21	-4.99546352e-03	-7.09003556e-23	2.34835474e-02	2.34835474e-02	-3.08909564e-21	-2.94729493e-21	-5.22614884e-02	-4.22705614e-02
0.001           	4.69662955e-02	-6.28155364e-21	-9.62338924e-02	-4.27443598e-21	-4.99025216e-03	-7.50287733e-23	2.34831477e-02	2.34831477e-02	-3.21580559e-21	-3.06574804e-21	-5.31071984e-02	-4.31266941e-02
0.0015          	4.69620003e-02	-6.31140958e-21	-1.00306699e-01	-4.25593398e-21	-4.98615560e-03	-7.28206374e-23	2.34810001e-02	2.34810001e-02	-3.22852542e-21	-3.08288415e-21	-5.51395051e-02	-4.51671939e-02
0.002           	4.69490022e-02	-6.29037476e-21	-9.94042088e-02	-4.24779385e-21	-4.99033101e-03	-7.29497068e-23	2.34745011e-02	2.34745011e-02	-3.21813709e-21	-3.07223767e-21	-5.46924354e-02	-4.47117734e-02
0.0025          	4.69516210e-02	-6.29905992e-21	-1.00085754e-01	-4.24702629e-21	-4.99406989e-03	-7.26379998e-23	2.34758105e-02	2.34758105e-02	-3.22216796e-21	-3.07689196e-21	-5.50369467e-02	-4.50488070e-02
0.003           	4.69506790e-02	-6.29052871e-21	-9.99622546e-02	-4.24114657e-21	-4.99316660e-03	-7.25149929e-23	2.34753395e-02	2.34753395e-02	-3.21777935e-21	-3.07274936e-21	-5.49742939e-02	-4.49879607e-02
0.0035          	4.69508186e-02	-6.29454868e-21	-1.00477322e-01	-4.23839254e-21	-4.99242819e-03	-7.22118216e-23	2.34754093e-02	2.34754093e-02	-3.21948616e-21	-3.07506252e-21	-5.52310893e-02	-4.52462329e-02
0.004           	4.69507965e-02	-6.28817092e-21	-1.00570036e-01	-4.23193812e-21	-4.99088795e-03	-7.19814631e-23	2.34753982e-02	2.34753982e-02	-3.21606692e-21	-3.07210400e-21	-5.52759060e-02	-4.52941301e-02
0.0045          	4.69505150e-02	-6.29429284e-21	-1.00929007e-01	-4.23265984e-21	-4.98886700e-03	-7.18421419e-23	2.34752575e-02	2.34752575e-02	-3.21898856e-21	-3.07530428e-21	-5.54533707e-02	-4.54756367e-02
0.005           	4.69508333e-02	-6.29930320e-21	-1.01060436e-01	-4.23501098e-21	-4.98638774e-03	-7.18447468e-23	2.34754167e-02	2.34754167e-02	-3.22149634e-21	-3.07780685e-21	-5.55166059e-02	-4.55438304e-02
0.0055          	4.69513580e-02	-6.30254709e-21	-1.01392790e-01	-4.23371749e-21	-4.98352442e-03	-7.16604878e-23	2.34756790e-02	2.34756790e-02	-3.22293403e-21	-3.07961306e-21	-5.56799195e-02	-4.57128707e-02
0.006           	4.69524584e-02	-6.30872079e-21	-1.01491476e-01	-4.23729154e-21	-4.98017028e-03	-7.17118979e-23	2.34762292e-02	2.34762292e-02	-3.22607229e-21	-3.08264850e-21	-5.57259082e-02	-4.57655677e-02
0.0065          	4.69533822e-02	-6.30980865e-21	-1.01678033e-01	-4.23585123e-21	-4.97629133e-03	-7.15853563e-23	2.34766911e-02	2.34766911e-02	-3.22648968e-21	-3.08331897e-21	-5.58153079e-02	-4.58627253e-02
0.007           	4.69543761e-02	-6.31449582e-21	-1.01918111e-01	-4.23674006e-21	-4.97204886e-03	-7.15007703e-23	2.34771881e-02	2.34771881e-02	-3.22874868e-21	-3.08574714e-21	-5.59311046e-02	-4.59870069e-02
0.0075          	4.69551282e-02	-6.31519375e-21	-1.02144205e-01	-4.23454848e-21	-4.96768221e-03	-7.13357738e-23	2.34775641e-02	2.34775641e-02	-3.22893265e-21	-3.08626110e-21	-5.60397847e-02	-4.61044203e-02
0.008           	4.69559088e-02	-6.32096713e-21	-1.02419419e-01	-4.23592830e-21	-4.96295790e-03	-7.12492168e-23	2.34779544e-02	2.34779544e-02	-3.23173278e-21	-3.08923435e-21	-5.61726673e-02	-4.62467515e-02
0.0085          	4.69564986e-02	-6.32431300e-21	-1.02670011e-01	-4.23566561e-21	-4.95794537e-03	-7.11279815e-23	2.34782493e-02	2.34782493e-02	-3.23328448e-21	-3.09102852e-21	-5.62929509e-02	-4.63770602e-02
0.009           	4.69569363e-02	-6.32770161e-21	-1.02886647e-01	-4.23575596e-21	-4.95270373e-03	-7.10303075e-23	2.34784682e-02	2.34784682e-02	-3.23488111e-21	-3.09282050e-21	-5.63960273e-02	-4.64906199e-02
0.0095          	4.69573169e-02	-6.33075412e-21	-1.03120376e-01	-4.23541669e-21	-4.94718964e-03	-7.09145245e-23	2.34786585e-02	2.34786585e-02	-3.23629159e-21	-3.09446254e-21	-5.65073777e-02	-4.66129984e-02
0.01            	4.69578940e-02	-6.33299196e-21	-1.03230965e-01	-4.23567105e-21	-4.94131827e-03	-7.08678553e-23	2.34789470e-02	2.34789470e-02	-3.23736383e-21	-3.09562812e-21	-5.65568006e-02	-4.66741641e-02
0.0105          	4.69586448e-02	-6.34015597e-21	-1.03514071e-01	-4.23816468e-21	-4.93508307e-03	-7.08104163e-23	2.34793224e-02	2.34793224e-02	-3.24088840e-21	-3.09926757e-21	-5.66921186e-02	-4.68219525e-02
0.011           	4.69596234e-02	-6.34419794e-21	-1.03615975e-01	-4.23998061e-21	-4.92854515e-03	-7.08116300e-23	2.34798117e-02	2.34798117e-02	-3.24291060e-21	-3.10128734e-21	-5.67365325e-02	-4.68794422e-02
0.0115          	4.69599257e-02	-6.34435007e-21	-1.03983696e-01	-4.23594532e-21	-4.92185391e-03	-7.05326440e-23	2.34799629e-02	2.34799629e-02	-3.24270768e-21	-3.10164239e-21	-5.69137018e-02	-4.70699940e-02
0.012           	4.69598850e-02	-6.34531892e-21	-1.04019577e-01	-4.23594503e-21	-4.91499600e-03	-7.05105771e-23	2.34799425e-02	2.34799425e-02	-3.24317004e-21	-3.10214889e-21	-5.69247847e-02	-4.70947927e-02
0.0125          	4.69598791e-02	-6.34785916e-21	-1.04171183e-01	-4.23607044e-21	-4.90761434e-03	-7.04430937e-23	2.34799395e-02	2.34799395e-02	-3.24437267e-21	-3.10348649e-21	-5.69932060e-02	-4.71779773e-02
0.013           	4.69601045e-02	-6.34780814e-21	-1.04217625e-01	-4.23515874e-21	-4.89971096e-03	-7.03908694e-23	2.34800522e-02	2.34800522e-02	-3.24429494e-21	-3.10351320e-21	-5.70085235e-02	-4.72091016e-02
0.0135          	4.69600746e-02	-6.35490836e-21	-1.04536938e-01	-4.23726260e-21	-4.89158544e-03	-7.03061112e-23	2.34800373e-02	2.34800373e-02	-3.24776029e-21	-3.10714807e-21	-5.71600545e-02	-4.73768836e-02
0.014           	4.69601403e-02	-6.35836149e-21	-1.04696102e-01	-4.23803103e-21	-4.88347913e-03	-7.02534972e-23	2.34800701e-02	2.34800701e-02	-3.24943424e-21	-3.10892725e-21	-5.72315301e-02	-4.74645719e-02
0.0145          	4.69602374e-02	-6.36206010e-21	-1.04908855e-01	-4.23845990e-21	-4.87526422e-03	-7.01677495e-23	2.34801187e-02	2.34801187e-02	-3.25119780e-21	-3.11086230e-21	-5.73296915e-02	-4.75791631e-02
0.015           	4.69601537e-02	-6.36419336e-21	-1.04980903e-01	-4.23910405e-21	-4.86667677e-03	-7.01480128e-23	2.34800769e-02	2.34800769e-02	-3.25224469e-21	-3.11194867e-21	-5.73571282e-02	-4.76237747e-02
0.0155          	4.69599963e-02	-6.36341999e-21	-1.04991807e-01	-4.23800850e-21	-4.85757976e-03	-7.01066380e-23	2.34799982e-02	2.34799982e-02	-3.25181663e-21	-3.11160335e-21	-5.73534831e-02	-4.76383236e-02
0.016           	4.69600111e-02	-6.37135267e-21	-1.05306499e-01	-4.24079982e-21	-4.84818774e-03	-7.00435750e-23	2.34800055e-02	2.34800055e-02	-3.25571991e-21	-3.11563276e-21	-5.75014375e-02	-4.78050620e-02
0.0165          	4.69600656e-02	-6.36997867e-21	-1.05285352e-01	-4.23957122e-21	-4.83865937e-03	-7.00119522e-23	2.34800328e-02	2.34800328e-02	-3.25500129e-21	-3.11497738e-21	-5.74813352e-02	-4.78040164e-02
0.017           	4.69599259e-02	-6.37160496e-21	-1.05397095e-01	-4.23937289e-21	-4.82870943e-03	-6.99515268e-23	2.34799630e-02	2.34799630e-02	-3.25575401e-21	-3.11585095e-21	-5.75272572e-02	-4.78698383e-02
0.0175          	4.69598902e-02	-6.37503164e-21	-1.05482676e-01	-4.24093010e-21	-4.81841359e-03	-6.99529422e-23	2.34799451e-02	2.34799451e-02	-3.25746876e-21	-3.11756288e-21	-5.75597518e-02	-4.79229246e-02
0.018           	4.69596527e-02	-6.37479187e-21	-1.05452032e-01	-4.24072410e-21	-4.80772735e-03	-6.99529255e-23	2.34798263e-02	2.34798263e-02	-3.25734886e-21	-3.11744301e-21	-5.75337431e-02	-4.79182884e-02
0.0185          	4.69590242e-02	-6.37389656e-21	-1.05738033e-01	-4.23668823e-21	-4.79681683e-03	-6.97102088e-23	2.34795121e-02	2.34795121e-02	-3.25665849e-21	-3.11723807e-21	-5.76658334e-02	-4.80721997e-02
0.019           	4.69586293e-02	-6.37935161e-21	-1.05817798e-01	-4.23993346e-21	-4.78606448e-03	-6.97615630e-23	2.34793146e-02	2.34793146e-02	-3.25943737e-21	-3.11991424e-21	-5.76949637e-02	-4.81228347e-02
0.0195          	4.69585795e-02	-6.37469833e-21	-1.05770313e-01	-4.23626184e-21	-4.77491822e-03	-6.96728012e-23	2.34792897e-02	2.34792897e-02	-3.25702196e-21	-3.11767636e-21	-5.76600745e-02	-4.81102380e-02
0.02            	4.69583232e-02	-6.37532757e-21	-1.05863300e-01	-4.23551184e-21	-4.76316027e-03	-6.96046700e-23	2.34791616e-02	2.34791616e-02	-3.25726845e-21	-3.11805911e-21	-5.76948101e-02	-4.81684896e-02
0.0205          	4.69577313e-02	-6.37494838e-21	-1.05890493e-01	-4.23459548e-21	-4.75120874e-03	-6.95610206e-23	2.34788657e-02	2.34788657e-02	-3.25703521e-21	-3.11791317e-21	-5.76964551e-02	-4.81940376e-02
0.021           	4.69571566e-02	-6.37589636e-21	-1.05911997e-01	-4.23480984e-21	-4.73900385e-03	-6.95518058e-23	2.34785783e-02	2.34785783e-02	-3.25749998e-21	-3.11839637e-21	-5.76950025e-02	-4.82169948e-02
0.0215          	4.69568464e-02	-6.37707330e-21	-1.05935449e-01	-4.23520464e-21	-4.72646810e-03	-6.95470631e-23	2.34784232e-02	2.34784232e-02	-3.25808371e-21	-3.11898959e-21	-5.76941926e-02	-4.82412564e-02
0.022           	4.69567136e-02	-6.37574808e-21	-1.05928789e-01	-4.23384160e-21	-4.71362434e-03	-6.95056469e-23	2.34783568e-02	2.34783568e-02	-3.25737969e-21	-3.11836840e-21	-5.76780190e-02	-4.82507703e-02
0.0225          	4.69560595e-02	-6.36826800e-21	-1.05884200e-01	-4.22794064e-21	-4.70041260e-03	-6.93516994e-23	2.34780297e-02	2.34780297e-02	-3.25348570e-21	-3.11478230e-21	-5.76425127e-02	-4.82416875e-02
0.023           	4.69552085e-02	-6.37646575e-21	-1.05865041e-01	-4.23455880e-21	-4.68693316e-03	-6.95404115e-23	2.34776042e-02	2.34776042e-02	-3.25777329e-21	-3.11869246e-21	-5.76194535e-02	-4.82455872e-02
0.0235          	4.69544813e-02	-6.37553883e-21	-1.05827574e-01	-4.23388471e-21	-4.67325097e-03	-6.95318980e-23	2.34772407e-02	2.34772407e-02	-3.25730131e-21	-3.11823752e-21	-5.75870379e-02	-4.82405360e-02
0.024           	4.69540733e-02	-6.37615485e-21	-1.05882900e-01	-4.23348437e-21	-4.65934041e-03	-6.94910989e-23	2.34770366e-02	2.34770366e-02	-3.25756852e-21	-3.11858633e-21	-5.76007902e-02	-4.82821094e-02
0.0245          	4.69533463e-02	-6.37094387e-21	-1.05748818e-01	-4.23037195e-21	-4.64513902e-03	-6.94545126e-23	2.34766731e-02	2.34766731e-02	-3.25492645e-21	-3.11601742e-21	-5.75195483e-02	-4.82292702e-02
0.025           	4.69526318e-02	-6.37173714e-21	-1.05680760e-01	-4.23142773e-21	-4.63052426e-03	-6.95081867e-23	2.34763159e-02	2.34763159e-02	-3.25537676e-21	-3.11636038e-21	-5.74709043e-02	-4.82098558e-02
0.0255          	4.69523318e-02	-6.37258715e-21	-1.05590747e-01	-4.23276387e-21	-4.61560446e-03	-6.95796272e-23	2.34761659e-02	2.34761659e-02	-3.25587320e-21	-3.11671395e-21	-5.74109780e-02	-4.81797691e-02
0.026           	4.69519395e-02	-6.36826665e-21	-1.05541322e-01	-4.22947688e-21	-4.60042872e-03	-6.95016397e-23	2.34759697e-02	2.34759697e-02	-3.25363496e-21	-3.11463168e-21	-5.73710896e-02	-4.81702322e-02
0.0265          	4.69513335e-02	-6.36709064e-21	-1.05475111e-01	-4.22893154e-21	-4.58500464e-03	-6.95093888e-23	2.34756668e-02	2.34756668e-02	-3.25305471e-21	-3.11403593e-21	-5.73225601e-02	-4.81525508e-02
0.027           	4.69503919e-02	-6.36649978e-21	-1.05443603e-01	-4.22851248e-21	-4.56940064e-03	-6.95044415e-23	2.34751959e-02	2.34751959e-02	-3.25275433e-21	-3.11374545e-21	-5.72912020e-02	-4.81524007e-02
0.0275          	4.69493360e-02	-6.36426031e-21	-1.05359218e-01	-4.22729438e-21	-4.55352949e-03	-6.95005474e-23	2.34746680e-02	2.34746680e-02	-3.25163070e-21	-3.11262961e-21	-5.72331386e-02	-4.81260796e-02
0.028           	4.69484557e-02	-6.36166893e-21	-1.05201031e-01	-4.22654570e-21	-4.53730252e-03	-6.95422703e-23	2.34742279e-02	2.34742279e-02	-3.25037673e-21	-3.11129219e-21	-5.71378181e-02	-4.80632130e-02
0.0285          	4.69477592e-02	-6.35963033e-21	-1.05091735e-01	-4.22576609e-21	-4.52073159e-03	-6.95616959e-23	2.34738796e-02	2.34738796e-02	-3.24937686e-21	-3.11025347e-21	-5.70665992e-02	-4.80251360e-02
0.029           	4.69472790e-02	-6.35932952e-21	-1.04991859e-01	-4.22627721e-21	-4.50392035e-03	-6.96138762e-23	2.34736395e-02	2.34736395e-02	-3.24927864e-21	-3.11005089e-21	-5.69998499e-02	-4.79920092e-02
0.0295          	4.69467275e-02	-6.35236201e-21	-1.04745592e-01	-4.22292927e-21	-4.48679502e-03	-6.96198676e-23	2.34733638e-02	2.34733638e-02	-3.24580087e-21	-3.10656114e-21	-5.68595910e-02	-4.78860009e-02
0.03            	4.69457438e-02	-6.35113465e-21	-1.04778665e-01	-4.22133101e-21	-4.46941349e-03	-6.95541296e-23	2.34728719e-02	2.34728719e-02	-3.24512146e-21	-3.10601320e-21	-5.68587460e-02	-4.79199190e-02
0.0305          	4.69446146e-02	-6.34951634e-21	-1.04692471e-01	-4.22065010e-21	-4.45204028e-03	-6.95667272e-23	2.34723073e-02	2.34723073e-02	-3.24432490e-21	-3.10519144e-21	-5.67982756e-02	-4.78941951e-02
0.031           	4.69436747e-02	-6.34681485e-21	-1.04371736e-01	-4.22154679e-21	-4.43429695e-03	-6.97242378e-23	2.34718374e-02	2.34718374e-02	-3.24313166e-21	-3.10368319e-21	-5.66201649e-02	-4.77515710e-02
0.0315          	4.69426074e-02	-6.34105535e-21	-1.04184042e-01	-4.21862071e-21	-4.41596295e-03	-6.97169700e-23	2.34713037e-02	2.34713037e-02	-3.24024465e-21	-3.10081071e-21	-5.65079841e-02	-4.76760582e-02
0.032           	4.69413680e-02	-6.34079551e-21	-1.04162967e-01	-4.21838155e-21	-4.39759472e-03	-6.97136578e-23	2.34706840e-02	2.34706840e-02	-3.24011141e-21	-3.10068410e-21	-5.64790781e-02	-4.76838887e-02
0.0325          	4.69400784e-02	-6.33620662e-21	-1.03922721e-01	-4.21692425e-21	-4.37922101e-03	-6.97705599e-23	2.34700392e-02	2.34700392e-02	-3.23787387e-21	-3.09833275e-21	-5.63405813e-02	-4.75821392e-02
0.033           	4.69393299e-02	-6.33652968e-21	-1.03740087e-01	-4.21879804e-21	-4.36039283e-03	-6.98970609e-23	2.34696650e-02	2.34696650e-02	-3.23816190e-21	-3.09836778e-21	-5.62304363e-02	-4.75096506e-02
0.0335          	4.69383491e-02	-6.32837712e-21	-1.03558265e-01	-4.21386900e-21	-4.34116973e-03	-6.98302131e-23	2.34691745e-02	2.34691745e-02	-3.23401877e-21	-3.09435834e-21	-5.61203023e-02	-4.74379629e-02
0.034           	4.69370411e-02	-6.32451138e-21	-1.03432159e-01	-4.21180990e-21	-4.32188066e-03	-6.98206858e-23	2.34685206e-02	2.34685206e-02	-3.23207638e-21	-3.09243501e-21	-5.60379604e-02	-4.73941990e-02
0.0345          	4.69357130e-02	-6.32005941e-21	-1.03171604e-01	-4.21069936e-21	-4.30241119e-03	-6.98961382e-23	2.34678565e-02	2.34678565e-02	-3.22992584e-21	-3.09013357e-21	-5.58882132e-02	-4.72833908e-02
0.035           	4.69347145e-02	-6.32108811e-21	-1.02887296e-01	-4.21432000e-21	-4.28246391e-03	-7.01144937e-23	2.34673572e-02	2.34673572e-02	-3.23065855e-21	-3.09042956e-21	-5.57261121e-02	-4.71611843e-02
0.0355          	4.69334795e-02	-6.31134867e-21	-1.02759930e-01	-4.20751136e-21	-4.26220253e-03	-6.99716637e-23	2.34667397e-02	2.34667397e-02	-3.22564600e-21	-3.08570267e-21	-5.56421676e-02	-4.71177625e-02
0.036           	4.69322454e-02	-6.30730108e-21	-1.02538668e-01	-4.20631713e-21	-4.24191304e-03	-7.00279886e-23	2.34661227e-02	2.34661227e-02	-3.22367853e-21	-3.08362255e-21	-5.55112470e-02	-4.70274209e-02
0.0365          	4.69310394e-02	-6.30376255e-21	-1.02346137e-01	-4.20525095e-21	-4.22148530e-03	-7.00750610e-23	2.34655197e-02	2.34655197e-02	-3.22195633e-21	-3.08180621e-21	-5.53945540e-02	-4.69515834e-02
0.037           	4.69297552e-02	-6.29729320e-21	-1.02005944e-01	-4.20337701e-21	-4.20070889e-03	-7.01627940e-23	2.34648776e-02	2.34648776e-02	-3.21880939e-21	-3.07848381e-21	-5.52036807e-02	-4.68022629e-02
0.0375          	4.69285829e-02	-6.29464499e-21	-1.01746852e-01	-4.20373647e-21	-4.17957657e-03	-7.02794977e-23	2.34642914e-02	2.34642914e-02	-3.21760199e-21	-3.07704300e-21	-5.50530024e-02	-4.66938493e-02
0.038           	4.69273349e-02	-6.28496622e-21	-1.01475564e-01	-4.19850555e-21	-4.15819274e-03	-7.02430022e-23	2.34636675e-02	2.34636675e-02	-3.21272611e-21	-3.07224011e-21	-5.48959750e-02	-4.65795895e-02
0.0385          	4.69257568e-02	-6.27738069e-21	-1.01135265e-01	-4.19574280e-21	-4.13653306e-03	-7.03056249e-23	2.34628784e-02	2.34628784e-02	-3.20899597e-21	-3.06838472e-21	-5.47041653e-02	-4.64310992e-02
0.039           	4.69240180e-02	-6.27201543e-21	-1.00899008e-01	-4.19366189e-21	-4.11465458e-03	-7.03434843e-23	2.34620090e-02	2.34620090e-02	-3.20635120e-21	-3.06566423e-21	-5.45641587e-02	-4.63348496e-02
0.0395          	4.69226159e-02	-6.26512818e-21	-1.00618686e-01	-4.19079675e-21	-4.09266918e-03	-7.03786799e-23	2.34613080e-02	2.34613080e-02	-3.20294277e-21	-3.06218541e-21	-5.44020121e-02	-4.62166737e-02
0.04            	4.69214564e-02	-6.26235533e-21	-1.00334323e-01	-4.19135226e-21	-4.07051484e-03	-7.05114001e-23	2.34607282e-02	2.34607282e-02	-3.20168907e-21	-3.06066627e-21	-5.42376766e-02	-4.60966469e-02
0.0405          	4.69202341e-02	-6.25502817e-21	-9.99082564e-02	-4.18969095e-21	-4.04797812e-03	-7.06423671e-23	2.34601170e-02	2.34601170e-02	-3.19815645e-21	-3.05687172e-21	-5.40021063e-02	-4.59061501e-02
0.041           	4.69190163e-02	-6.24948332e-21	-9.96620490e-02	-4.18759757e-21	-4.02513884e-03	-7.06847212e-23	2.34595082e-02	2.34595082e-02	-3.19542638e-21	-3.05405694e-21	-5.38561634e-02	-4.58058857e-02
0.0415          	4.69178649e-02	-6.24293332e-21	-9.92982957e-02	-4.18590105e-21	-4.00218186e-03	-7.07881142e-23	2.34589325e-02	2.34589325e-02	-3.19225477e-21	-3.05067854e-21	-5.36513297e-02	-4.56469660e-02
0.042           	4.69168931e-02	-6.23699714e-21	-9.89501863e-02	-4.18453822e-21	-3.97891874e-03	-7.08946636e-23	2.34584466e-02	2.34584466e-02	-3.18939323e-21	-3.04760391e-21	-5.34540119e-02	-4.54961744e-02
0.0425          	4.69156644e-02	-6.22744211e-21	-9.87123149e-02	-4.17912868e-21	-3.95552505e-03	-7.08394233e-23	2.34578322e-02	2.34578322e-02	-3.18456048e-21	-3.04288163e-21	-5.33116825e-02	-4.54006324e-02
0.043           	4.69142219e-02	-6.21765946e-21	-9.82603519e-02	-4.17574023e-21	-3.93207580e-03	-7.09331389e-23	2.34571110e-02	2.34571110e-02	-3.17976287e-21	-3.03789659e-21	-5.30622517e-02	-4.51981001e-02
0.0435          	4.69122555e-02	-6.21381463e-21	-9.79847042e-02	-4.17542106e-21	-3.90833079e-03	-7.10367702e-23	2.34561277e-02	2.34561277e-02	-3.17794409e-21	-3.03587055e-21	-5.29006829e-02	-4.50840213e-02
0.044           	4.69104714e-02	-6.20696371e-21	-9.76807399e-02	-4.17285745e-21	-3.88450447e-03	-7.10910037e-23	2.34552357e-02	2.34552357e-02	-3.17457286e-21	-3.03239085e-21	-5.27248744e-02	-4.49558655e-02
0.0445          	4.69090005e-02	-6.20060350e-21	-9.72974218e-02	-4.17154120e-21	-3.86055483e-03	-7.12140581e-23	2.34545002e-02	2.34545002e-02	-3.17151581e-21	-3.02908769e-21	-5.25092657e-02	-4.47881561e-02
0.045           	4.69073931e-02	-6.18821873e-21	-9.68905047e-02	-4.16560122e-21	-3.83622463e-03	-7.12162415e-23	2.34536965e-02	2.34536965e-02	-3.16532560e-21	-3.02289312e-21	-5.22814770e-02	-4.46090277e-02
0.0455          	4.69058836e-02	-6.17907152e-21	-9.63031352e-02	-4.16415882e-21	-3.81140116e-03	-7.14240435e-23	2.34529418e-02	2.34529418e-02	-3.16095980e-21	-3.01811172e-21	-5.19629688e-02	-4.43401665e-02
0.046           	4.69046420e-02	-6.16914910e-21	-9.58003271e-02	-4.16121204e-21	-3.78601725e-03	-7.15528723e-23	2.34523210e-02	2.34523210e-02	-3.15612742e-21	-3.01302168e-21	-5.16861808e-02	-4.41141463e-02
0.0465          	4.69031601e-02	-6.16128376e-21	-9.57288463e-02	-4.15545508e-21	-3.76070376e-03	-7.14162278e-23	2.34515800e-02	2.34515800e-02	-3.15205811e-21	-3.00922565e-21	-5.16251269e-02	-4.41037194e-02
0.047           	4.69016940e-02	-6.15427504e-21	-9.52004042e-02	-4.15513931e-21	-3.73569172e-03	-7.16302682e-23	2.34508470e-02	2.34508470e-02	-3.14876779e-21	-3.00550725e-21	-5.13358938e-02	-4.38645104e-02
0.0475          	4.69001512e-02	-6.14975912e-21	-9.46469036e-02	-4.15724526e-21	-3.71027342e-03	-7.19229727e-23	2.34500756e-02	2.34500756e-02	-3.14680253e-21	-3.00295659e-21	-5.10337252e-02	-4.36131784e-02
0.048           	4.68984176e-02	-6.14141363e-21	-9.43514683e-02	-4.15344908e-21	-3.68457946e-03	-7.19379602e-23	2.34492088e-02	2.34492088e-02	-3.14264477e-21	-2.99876885e-21	-5.08603136e-02	-4.34911547e-02
0.0485          	4.68965652e-02	-6.12918271e-21	-9.37941974e-02	-4.14920898e-21	-3.65879200e-03	-7.20537254e-23	2.34482826e-02	2.34482826e-02	-3.13664508e-21	-2.99253763e-21	-5.05558907e-02	-4.32383067e-02
0.049           	4.68949037e-02	-6.12436270e-21	-9.35045740e-02	-4.14821259e-21	-3.63277361e-03	-7.21459076e-23	2.34474518e-02	2.34474518e-02	-3.13432726e-21	-2.99003544e-21	-5.03850606e-02	-4.31195134e-02
0.0495          	4.68932839e-02	-6.11188370e-21	-9.29449022e-02	-4.14383099e-21	-3.60660692e-03	-7.22584514e-23	2.34466420e-02	2.34466420e-02	-3.12820030e-21	-2.98368340e-21	-5.00790580e-02	-4.28658442e-02
0.05            	4.68914782e-02	-6.10826831e-21	-9.26271779e-02	-4.14417442e-21	-3.58035937e-03	-7.24002936e-23	2.34457391e-02	2.34457391e-02	-3.12653445e-21	-2.98173386e-21	-4.98939483e-02	-4.27332296e-02
0.0505          	4.68897938e-02	-6.09576272e-21	-9.20097980e-02	-4.14032676e-21	-3.55390336e-03	-7.25530839e-23	2.34448969e-02	2.34448969e-02	-3.12043444e-21	-2.97532827e-21	-4.95588024e-02	-4.24509957e-02
0.051           	4.68881988e-02	-6.08439758e-21	-9.15447297e-02	-4.13585946e-21	-3.52698242e-03	-7.26229580e-23	2.34440994e-02	2.34440994e-02	-3.11482175e-21	-2.96957583e-21	-4.92993472e-02	-4.22453824e-02
0.0515          	4.68866560e-02	-6.07518672e-21	-9.10982493e-02	-4.13296096e-21	-3.49987570e-03	-7.27292131e-23	2.34433280e-02	2.34433280e-02	-3.11032257e-21	-2.96486415e-21	-4.90490003e-02	-4.20492489e-02
0.052           	4.68853029e-02	-6.06820090e-21	-9.05374106e-02	-4.13306687e-21	-3.47267328e-03	-7.29693892e-23	2.34426515e-02	2.34426515e-02	-3.10706984e-21	-2.96113106e-21	-4.87413786e-02	-4.17960320e-02
0.0525          	4.68838251e-02	-6.05637477e-21	-9.00006051e-02	-4.12902849e-21	-3.44518059e-03	-7.30822088e-23	2.34419125e-02	2.34419125e-02	-3.10126959e-21	-2.95510518e-21	-4.84454832e-02	-4.15551220e-02
0.053           	4.68820294e-02	-6.04430946e-21	-8.94734502e-02	-4.12465733e-21	-3.41746646e-03	-7.31809300e-23	2.34410147e-02	2.34410147e-02	-3.09533566e-21	-2.94897380e-21	-4.81541916e-02	-4.13192586e-02
0.0535          	4.68803930e-02	-6.03756478e-21	-8.90999144e-02	-4.12300982e-21	-3.38975721e-03	-7.32922677e-23	2.34401965e-02	2.34401965e-02	-3.09207466e-21	-2.94549012e-21	-4.79397144e-02	-4.11602000e-02
0.054           	4.68788078e-02	-6.02331980e-21	-8.85352271e-02	-4.11725850e-21	-3.36208936e-03	-7.33684845e-23	2.34394039e-02	2.34394039e-02	-3.08502838e-21	-2.93829141e-21	-4.76297029e-02	-4.09055242e-02
0.0545          	4.68773776e-02	-6.01375108e-21	-8.80907080e-02	-4.11403344e-21	-3.33420764e-03	-7.34654252e-23	2.34386888e-02	2.34386888e-02	-3.08034097e-21	-2.93341012e-21	-4.73795616e-02	-4.07111463e-02
0.055           	4.68758111e-02	-6.00196618e-21	-8.75140763e-02	-4.11044794e-21	-3.30609615e-03	-7.36080195e-23	2.34379056e-02	2.34379056e-02	-3.07459111e-21	-2.92737507e-21	-4.70631343e-02	-4.04509420e-02
0.0555          	4.68739740e-02	-5.98976080e-21	-8.68670110e-02	-4.10728679e-21	-3.27771505e-03	-7.37930100e-23	2.34369870e-02	2.34369870e-02	-3.06867341e-21	-2.92108739e-21	-4.67112205e-02	-4.01557904e-02
0.056           	4.68719676e-02	-5.98175193e-21	-8.63999423e-02	-4.10562588e-21	-3.24912837e-03	-7.39432003e-23	2.34359838e-02	2.34359838e-02	-3.06481917e-21	-2.91693277e-21	-4.64490995e-02	-3.99508428e-02
0.0565          	4.68701098e-02	-5.96942541e-21	-8.57804875e-02	-4.10203449e-21	-3.22045810e-03	-7.41046698e-23	2.34350549e-02	2.34350549e-02	-3.05881738e-21	-2.91060804e-21	-4.61107019e-02	-3.96697857e-02
0.057           	4.68685102e-02	-5.96012874e-21	-8.53348871e-02	-4.09908426e-21	-3.19168595e-03	-7.42103045e-23	2.34342551e-02	2.34342551e-02	-3.05427467e-21	-2.90585406e-21	-4.58591295e-02	-3.94757576e-02
0.0575          	4.68673264e-02	-5.94878120e-21	-8.46966462e-02	-4.09644158e-21	-3.16280113e-03	-7.44074834e-23	2.34336632e-02	2.34336632e-02	-3.04879808e-21	-2.89998312e-21	-4.55111242e-02	-3.91855220e-02
0.058           	4.68656814e-02	-5.93678376e-21	-8.41279671e-02	-4.09267868e-21	-3.13368893e-03	-7.45420153e-23	2.34328407e-02	2.34328407e-02	-3.04293389e-21	-2.89384986e-21	-4.51976725e-02	-3.89302946e-02
0.0585          	4.68634100e-02	-5.92131471e-21	-8.35848380e-02	-4.08573686e-21	-3.10452491e-03	-7.45762422e-23	2.34317050e-02	2.34317050e-02	-3.03523360e-21	-2.88608111e-21	-4.48969439e-02	-3.86878941e-02
0.059           	4.68609555e-02	-5.90436914e-21	-8.30716680e-02	-4.07722857e-21	-3.07533570e-03	-7.45542271e-23	2.34304778e-02	2.34304778e-02	-3.02673880e-21	-2.87763034e-21	-4.46111697e-02	-3.84604983e-02
0.0595          	4.68587828e-02	-5.89871150e-21	-8.23301798e-02	-4.08042368e-21	-3.04587323e-03	-7.49599737e-23	2.34293914e-02	2.34293914e-02	-3.02431572e-21	-2.87439578e-21	-4.42109631e-02	-3.81192167e-02
0.06            	4.68568479e-02	-5.88691165e-21	-8.17260010e-02	-4.07711095e-21	-3.01607319e-03	-7.51235214e-23	2.34284239e-02	2.34284239e-02	-3.01857935e-21	-2.86833231e-21	-4.38790737e-02	-3.78469273e-02
0.0605          	4.68551316e-02	-5.87314738e-21	-8.10166602e-02	-4.07329042e-21	-2.98595740e-03	-7.53180513e-23	2.34275658e-02	2.34275658e-02	-3.01189174e-21	-2.86125564e-21	-4.34942875e-02	-3.75223727e-02
0.061           	4.68535390e-02	-5.86297114e-21	-8.05396771e-02	-4.07000640e-21	-2.95580773e-03	-7.54283529e-23	2.34267695e-02	2.34267695e-02	-3.00691392e-21	-2.85605722e-21	-4.32256463e-02	-3.73140308e-02
0.0615          	4.68520331e-02	-5.84968642e-21	-7.99373474e-02	-4.06546523e-21	-2.92587746e-03	-7.55568517e-23	2.34260166e-02	2.34260166e-02	-3.00040006e-21	-2.84928636e-21	-4.28945512e-02	-3.70427962e-02
0.062           	4.68504058e-02	-5.83739667e-21	-7.92592947e-02	-4.06257205e-21	-2.89582091e-03	-7.57638061e-23	2.34252029e-02	2.34252029e-02	-2.99446214e-21	-2.84293453e-21	-4.25254683e-02	-3.67338264e-02
0.0625          	4.68488831e-02	-5.82531175e-21	-7.86603437e-02	-4.05899907e-21	-2.86554256e-03	-7.59187197e-23	2.34244415e-02	2.34244415e-02	-2.98857459e-21	-2.83673715e-21	-4.21957144e-02	-3.64646293e-02
0.063           	4.68472334e-02	-5.81108035e-21	-7.79519825e-02	-4.05483554e-21	-2.83511790e-03	-7.61027302e-23	2.34236167e-02	2.34236167e-02	-2.98164291e-21	-2.82943745e-21	-4.18111092e-02	-3.61408734e-02
0.0635          	4.68460734e-02	-5.80117321e-21	-7.73502816e-02	-4.05302389e-21	-2.80446874e-03	-7.63092204e-23	2.34230367e-02	2.34230367e-02	-2.97689583e-21	-2.82427739e-21	-4.14796095e-02	-3.58706720e-02
0.064           	4.68443660e-02	-5.78526983e-21	-7.66910648e-02	-4.04708042e-21	-2.77377700e-03	-7.64211332e-23	2.34221830e-02	2.34221830e-02	-2.96905605e-21	-2.81621378e-21	-4.11193094e-02	-3.55717554e-02
0.0645          	4.68422949e-02	-5.76869477e-21	-7.59727851e-02	-4.04110037e-21	-2.74301265e-03	-7.65591691e-23	2.34211474e-02	2.34211474e-02	-2.96090655e-21	-2.80778822e-21	-4.07294052e-02	-3.52433799e-02
0.065           	4.68400206e-02	-5.75551699e-21	-7.53489615e-02	-4.03692835e-21	-2.71204576e-03	-7.67070885e-23	2.34200103e-02	2.34200103e-02	-2.95446558e-21	-2.80105140e-21	-4.03865265e-02	-3.49624350e-02
0.0655          	4.68381680e-02	-5.74459984e-21	-7.47641265e-02	-4.03416896e-21	-2.68103519e-03	-7.68784703e-23	2.34190840e-02	2.34190840e-02	-2.94917839e-21	-2.79542145e-21	-4.00630984e-02	-3.47010281e-02
0.066           	4.68364170e-02	-5.73008440e-21	-7.39677887e-02	-4.03073798e-21	-2.64992371e-03	-7.71219243e-23	2.34182085e-02	2.34182085e-02	-2.94216412e-21	-2.78792028e-21	-3.96338181e-02	-3.43339707e-02
0.0665          	4.68345417e-02	-5.71895638e-21	-7.34198905e-02	-4.02746401e-21	-2.61866182e-03	-7.72623004e-23	2.34172708e-02	2.34172708e-02	-2.93674049e-21	-2.78221589e-21	-3.93286071e-02	-3.40912834e-02
0.067           	4.68326709e-02	-5.70556011e-21	-7.26798815e-02	-4.02433494e-21	-2.58734734e-03	-7.74901894e-23	2.34163355e-02	2.34163355e-02	-2.93027024e-21	-2.77528986e-21	-3.89272881e-02	-3.37525934e-02
0.0675          	4.68305077e-02	-5.68970445e-21	-7.20449196e-02	-4.01813606e-21	-2.55595382e-03	-7.75859700e-23	2.34152539e-02	2.34152539e-02	-2.92243819e-21	-2.76726625e-21	-3.85784136e-02	-3.34665060e-02
0.068           	4.68285004e-02	-5.67604724e-21	-7.12412863e-02	-4.01545036e-21	-2.52439327e-03	-7.78543977e-23	2.34142502e-02	2.34142502e-02	-2.91587802e-21	-2.76016922e-21	-3.81450364e-02	-3.30962499e-02
0.0685          	4.68264563e-02	-5.65873200e-21	-7.06825825e-02	-4.00724074e-21	-2.49277318e-03	-7.78616082e-23	2.34132282e-02	2.34132282e-02	-2.90722761e-21	-2.75150439e-21	-3.78340644e-02	-3.28485181e-02
0.069           	4.68245075e-02	-5.64327463e-21	-6.99270828e-02	-4.00259947e-21	-2.46119061e-03	-7.80536697e-23	2.34122538e-02	2.34122538e-02	-2.89969099e-21	-2.74358365e-21	-3.74247320e-02	-3.25023508e-02
0.0695          	4.68225494e-02	-5.62547087e-21	-6.92177184e-02	-3.99557124e-21	-2.42945614e-03	-7.81590062e-23	2.34112747e-02	2.34112747e-02	-2.89089444e-21	-2.73457643e-21	-3.70383153e-02	-3.21794031e-02
0.07            	4.68206720e-02	-5.61775454e-21	-6.85093284e-02	-3.99681441e-21	-2.39759218e-03	-7.84966442e-23	2.34103360e-02	2.34103360e-02	-2.88737391e-21	-2.73038062e-21	-3.66522564e-02	-3.18570720e-02
0.0705          	4.68188639e-02	-5.60421596e-21	-6.77133625e-02	-3.99420612e-21	-2.36565625e-03	-7.87637238e-23	2.34094319e-02	2.34094319e-02	-2.88087170e-21	-2.72334425e-21	-3.62223375e-02	-3.14910250e-02