/*--------------------------------*- C++ -*----------------------------------*\
| =========                 |                                                 |
| \\      /  F ield         | OpenFOAM: The Open Source CFD Toolbox           |
|  \\    /   O peration     | Version:  2112                                  |
|   \\  /    A nd           | Website:  www.openfoam.com                      |
|    \\/     M anipulation  |                                                 |
\*---------------------------------------------------------------------------*/
FoamFile
{
    version     2.0;
    format      ascii;
    arch        "LSB;label=32;scalar=64";
    class       volScalarField;
    location    "20";
    object      p;
}
// * * * * * * * * * * * * * * * * * * * * * * * * * * * * * * * * * * * * * //

dimensions      [0 2 -2 0 0 0 0];

internalField   nonuniform List<scalar> 
10936
(
-0.0017546713
-0.00213008
-0.0070472564
-0.0025423772
-0.0074796273
0.035584524
-0.0030721654
-0.0083894252
0.036536347
0.094020274
-0.003670722
-0.009744791
0.037391122
0.095161643
0.055124772
-0.0043121102
-0.01140555
0.038201679
0.097035328
0.054101161
-0.053224641
-0.0049847889
-0.013267236
0.038954517
0.099532418
0.05338415
-0.055647043
-0.018328528
-0.0056831207
-0.01525988
0.039631416
0.10232827
0.052947453
-0.058334057
-0.018500143
0.084913033
-0.006402562
-0.017330788
0.040203728
0.10520034
0.052649651
-0.063445146
-0.019457976
0.086758335
0.12776236
-0.0071371277
-0.019435439
0.040635108
0.10799168
0.052323221
-0.069437403
-0.021351772
0.088613301
0.12919664
0.1315373
-0.0078782855
-0.021532884
0.040886039
0.11058236
0.051795029
-0.076118591
-0.023898396
0.090523519
0.13093113
0.13232168
0.08420531
-0.0086146841
-0.023582953
0.040919423
0.11287703
0.050887028
-0.083416727
-0.026934973
0.092386124
0.13330374
0.13389616
0.083213348
-0.00348369
-0.0093324918
-0.025545986
0.040705928
0.11479645
0.049434432
-0.091301526
-0.030423731
0.094143113
0.1357861
0.13618475
0.082611421
-0.0062500824
-0.022279586
-0.010016617
-0.027384421
0.040226554
0.11627414
0.047308727
-0.099737294
-0.034398603
0.095739521
0.13820095
0.13882752
0.082375884
-0.0098813789
-0.024369307
0.028680626
-0.010652277
-0.029063488
0.039473515
0.1172538
0.044437678
-0.10864761
-0.038909784
0.097106128
0.14039615
0.14155083
0.082304958
-0.014576889
-0.028084502
0.028521955
0.11385676
-0.011226372
-0.030553744
0.038450792
0.11769026
0.040816899
-0.11789748
-0.043983753
0.098165694
0.14224166
0.14415157
0.082176823
-0.020162774
-0.033338031
0.027459361
0.11593588
0.17730747
-0.011728389
-0.031832863
0.037172931
0.11755087
0.036507667
-0.12729961
-0.049596253
0.098842046
0.14362527
0.14646668
0.081763295
-0.026621079
-0.039744578
0.025317193
0.11778907
0.17963627
0.20273078
-0.01215048
-0.032886131
0.03566203
0.11681638
0.031622414
-0.13662318
-0.055662162
0.099068806
0.144453
0.14836162
0.080831513
-0.034031362
-0.047138471
0.022393704
0.11946282
0.18201671
0.20412275
0.2004896
-0.012486763
-0.03370664
0.033945467
0.11548341
0.026305389
-0.14561863
-0.06203965
0.098797034
0.14465065
0.14972344
0.079171138
-0.042493863
-0.055515133
0.018853494
0.12092657
0.18477192
0.20604171
0.20144858
0.16228102
-0.012734563
-0.03429199
0.032054108
0.11356386
0.020713376
-0.15404691
-0.068549009
0.098000007
0.14416589
0.1504579
0.07663224
-0.052048002
-0.064920549
0.014701924
0.12215745
0.1875887
0.20854287
0.20334851
0.16202759
0.096241938
-0.012905062
-0.034639771
0.030020229
0.11108424
0.014997921
-0.16170347
-0.074998521
0.096674196
0.14296955
0.1504898
0.073157283
-0.062604309
-0.075351162
0.0098785748
0.12307249
0.19024724
0.21137743
0.20609374
0.16240426
0.09406167
0.035050119
-0.013013469
-0.034759053
0.027876976
0.10807918
0.0092939893
-0.16843296
-0.081207594
0.094836799
0.14105549
0.1497669
0.068792542
-0.073919822
-0.086673423
0.0043424449
0.12354067
0.19257987
0.21398968
0.20925526
0.16342204
0.091576263
0.031107999
0.013268094
-0.013013527
-0.034749348
0.025648608
0.1045758
0.003718475
-0.17412849
-0.087022871
0.092521218
0.13843866
0.14826318
0.063673659
-0.08563009
-0.098616204
-0.0018781327
0.1234237
0.19443078
0.21623483
0.21248387
0.16472439
0.088732726
0.025868584
0.010162403
0.049000326
-0.012883303
-0.034432497
0.023000005
0.10060474
-0.0016362966
-0.17870976
-0.09232673
0.089772232
0.13515204
0.14597984
0.057993955
-0.097305045
-0.11078526
-0.008670804
0.1226056
0.19565055
0.2179308
0.21550329
0.16598772
0.085351731
0.018935051
0.0048945453
0.048157854
0.10937634
-0.012623814
-0.033779664
0.019769456
0.09604753
-0.0067536357
-0.18210881
-0.09703727
0.086642532
0.13124457
0.1429466
0.051969158
-0.10852216
-0.12273108
-0.01584193
0.12101259
0.19610658
0.21892002
0.21807568
0.16690181
0.081147703
0.010471532
-0.0024121526
0.046076176
0.1106346
0.16584877
-0.012231531
-0.032779782
0.016377376
0.090151529
-0.011452478
-0.18439771
-0.10109069
0.083188143
0.12677758
0.13921894
0.045805932
-0.1189234
-0.13402917
-0.023147054
0.11862426
0.19569373
0.21907809
0.22000085
0.16715312
0.07574653
0.00032260019
-0.011332382
0.042665644
0.11138585
0.16795146
0.21147072
-0.011704311
-0.031424671
0.012875925
0.083445514
-0.015815514
-0.18613296
-0.1044111
0.079460593
0.12180759
0.13486287
0.039677042
-0.12824894
-0.14433647
-0.030335546
0.11547326
0.19434211
0.21831234
0.22111173
0.16644415
0.068750456
-0.011840897
-0.021827308
0.03830448
0.11148421
0.16972444
0.21353012
0.24412527
-0.011043085
-0.029711478
0.009283013
0.075942146
-0.020134505
-0.18615557
-0.10823389
0.075429378
0.1163551
0.12992741
0.033713412
-0.13634423
-0.15341116
-0.037188098
0.11163452
0.19202077
0.21656138
0.22127373
0.16452995
0.05987069
-0.026318532
-0.034116948
0.033127324
0.1111197
0.17125287
0.21545471
0.24632458
0.26401124
-0.010251847
-0.027644096
0.0056239053
0.067633793
-0.02435661
-0.18490499
-0.11177195
0.070205208
0.11045256
0.12445087
0.028026307
-0.14313175
-0.16111565
-0.043536031
0.10720963
0.1887362
0.21379657
0.22038928
0.16125875
0.049057547
-0.043145536
-0.048439696
0.027001361
0.11039299
0.17246057
0.21738144
0.24828365
0.26559808
0.26770833
-0.0093372692
-0.025233354
0.0019310204
0.058553703
-0.028440164
-0.18225455
-0.11423174
0.063234819
0.10406358
0.11858461
0.022722068
-0.14854845
-0.16740753
-0.049264676
0.10231192
0.18452687
0.21002026
0.21840138
0.15659591
0.036545733
-0.061967687
-0.064797247
0.019738388
0.10924453
0.17330865
0.21905831
0.2506166
0.26779235
0.26896115
0.25520053
-0.0083084702
-0.022496757
-0.0017607744
0.04876059
-0.032344559
-0.17810435
-0.11564403
0.056070014
0.095687017
0.11294139
0.017789834
-0.15253243
-0.1722907
-0.054307466
0.097055235
0.17945636
0.20526159
0.21529593
0.15062212
0.022794528
-0.082122019
-0.082842447
0.011253755
0.10753349
0.17372045
0.22030997
0.25288075
0.27062498
0.27116007
0.25600278
0.22781068
-0.0071768829
-0.019457993
-0.0054161993
0.038329587
-0.036029538
-0.17242878
-0.11591672
0.048829673
0.086680434
0.10609684
0.014351944
-0.15532819
-0.17572494
-0.058628206
0.091548984
0.17360784
0.1995734
0.21110247
0.14351287
0.0083730448
-0.10277292
-0.10194606
0.0016286407
0.10512539
0.17357994
0.2210069
0.25481072
0.27366435
0.27422888
0.25778873
0.22777372
0.19081283
-0.0059558699
-0.01614668
-0.0089993626
0.027350889
-0.039455919
-0.16524319
-0.1149666
0.0415002
0.077052781
0.098449071
0.012362515
-0.15697626
-0.17772685
-0.062175234
0.085891868
0.16708068
0.19303348
0.205895
0.13550983
-0.0061420795
-0.12307301
-0.12131585
-0.008903525
0.1019375
0.17276904
0.22102891
0.25620317
0.27657376
0.27773641
0.26054308
0.22838087
0.18968292
0.15206773
-0.0046603947
-0.012597653
-0.012473958
0.015928419
-0.042584893
-0.15659295
-0.11276633
0.034113165
0.066744405
0.089896302
0.010160408
-0.15562758
-0.18026334
-0.064909174
0.080183698
0.15997009
0.18573396
0.19978803
0.12688773
-0.020240575
-0.14229204
-0.14018163
-0.019990156
0.097958856
0.17119284
0.22026413
0.25689338
0.27906538
0.28134437
0.26391152
0.22976277
0.18875228
0.1499914
0.11903319
-0.0033067455
-0.0088502056
-0.015803929
0.0041789508
-0.04537865
-0.14655001
-0.10933085
0.026736949
0.055773715
0.080424324
0.0078001854
-0.1534008
-0.18088776
-0.069508995
0.074333232
0.15232738
0.17780772
0.19290131
0.11791
-0.033524878
-0.15987566
-0.15790417
-0.03124389
0.093251914
0.16879313
0.21862031
0.25674048
0.28092367
0.28476472
0.26757661
0.23165502
0.18814606
0.14765307
0.11636671
0.097297149
-0.001912092
-0.0049475829
-0.018953696
-0.0077708596
-0.047800366
-0.13521211
-0.10469914
0.019443715
0.04420498
0.070069814
0.005287784
-0.150066
-0.18007481
-0.074674008
0.066634767
0.14402892
0.17249315
0.18529603
0.10878596
-0.045723078
-0.17545727
-0.17401468
-0.04231126
0.087937822
0.16555676
0.21603635
0.2556298
0.2819654
0.28773099
0.27121859
0.23375094
0.18771953
0.14508134
0.11307051
0.094385706
0.087286636
-0.00093563742
-0.0004940409
-0.021888972
-0.019787752
-0.049814041
-0.12269967
-0.098930097
0.012298981
0.032119802
0.058900817
0.0026446821
-0.14554239
-0.17785364
-0.078522671
0.056500136
0.13496105
0.16276334
0.17698555
0.099680687
-0.05664236
-0.18884083
-0.18821265
-0.052902708
0.082167683
0.16151569
0.21248697
0.25347666
0.28203715
0.29000604
0.27449483
0.23563975
0.18717661
0.14228605
0.1089709
0.091027439
0.085329382
0.086719467
-0.024576896
0.0031376162
0.00092994485
-0.031733704
-0.051385071
-0.10915178
-0.092102219
0.0053628388
0.019611247
0.047006636
-9.6084819e-05
-0.13984016
-0.17399726
-0.081094944
0.046687729
0.12278338
0.15471613
0.16826082
0.090793144
-0.066080939
-0.19994659
-0.20034809
-0.062801454
0.076097895
0.15673882
0.20798282
0.25023092
0.28101835
0.29138862
0.27704393
0.23677338
0.18601093
0.13904916
0.10420974
0.086294797
0.082457747
0.085561575
0.091230878
-0.043470778
-0.026987702
0.0072234395
0.0023426623
-0.052480349
-0.094723472
-0.08431172
-0.0013081096
0.0067838589
0.034496719
-0.0028885454
-0.13298859
-0.16844352
-0.082281465
0.037408066
0.11009967
0.14158959
0.16086825
0.082371992
-0.073883173
-0.20869192
-0.21039542
-0.071860482
0.069875334
0.15131981
0.20256615
0.24587462
0.27882915
0.29171139
0.27848539
0.23649983
0.18353391
0.13490272
0.098681107
0.080571278
0.078356899
0.083801843
0.0903274
0.098117652
-0.053070503
-0.054860461
-0.029094816
0.011273248
0.0037276499
-0.079581774
-0.075670197
-0.0076612476
-0.0062466912
0.021499173
-0.0056748717
-0.1250266
-0.16122412
-0.081957069
0.028671306
0.097043505
0.12872527
0.15180086
0.077296708
-0.080441286
-0.21493307
-0.21836531
-0.079989892
0.063628751
0.14536553
0.19630388
0.2404209
0.27542156
0.29083133
0.2784332
0.23420403
0.17910389
0.12924883
0.092016842
0.07382399
0.073277501
0.081076081
0.08920814
0.096905509
0.10818049
-0.063902608
-0.053132415
-0.06576957
-0.030875642
0.015240024
0.0050693819
-0.066300843
-0.013648862
-0.019354994
0.0081590352
-0.0083870332
-0.11600591
-0.15239325
-0.080062528
0.020539155
0.083532495
0.11479989
0.14198384
0.074562147
-0.083523728
-0.21911644
-0.22412058
-0.087129424
0.057468967
0.13898677
0.18927972
0.23391158
0.27078021
0.28863019
0.27654584
0.22956649
0.17253692
0.12174077
0.083735513
0.065791033
0.067247326
0.077607492
0.087337109
0.095346991
0.1064525
0.12411425
-0.056335206
-0.047865782
-0.052653009
-0.076073425
-0.032312085
0.019078985
0.0063535982
-0.019228527
-0.032409051
-0.0053640196
-0.010947857
-0.10599263
-0.14202559
-0.076596444
0.013118628
0.069557626
0.10002361
0.13101644
0.071050247
-0.081129226
-0.22245848
-0.2275534
-0.093190871
0.051483281
0.13229315
0.18158723
0.22641065
0.26492602
0.28501558
0.27263227
0.22276343
0.16433533
0.11270357
0.07366503
0.05610112
0.060178358
0.073494436
0.084987349
0.093085276
0.10390003
0.12228834
0.14824357
-0.024363179
-0.045910024
-0.031650672
-0.051626392
-0.085655021
-0.033389856
0.022748652
0.007567548
-0.045272635
-0.018899301
-0.013273174
-0.095066285
-0.13022324
-0.071590081
0.0065061137
0.055208425
0.084371263
0.11887956
0.066794641
-0.07886401
-0.22001369
-0.23360209
-0.098042324
0.045799552
0.12538564
0.17332659
0.21800088
0.25790547
0.27992446
0.26671852
0.21438128
0.15538831
0.1030031
0.062217383
0.044568462
0.051837545
0.068869413
0.082326713
0.090477667
0.10037468
0.11919138
0.14699231
0.17931126
-0.0578083
-0.029021497
-0.035165022
-0.015435509
-0.050052378
-0.094412135
-0.034099052
0.026211439
0.008700197
-0.032267557
-0.015274359
-0.083316836
-0.11711319
-0.065101368
0.00076758041
0.040597366
0.067902278
0.10565793
0.061831989
-0.076200317
-0.21665396
-0.23650003
-0.10696778
0.040244262
0.11837681
0.16460018
0.20878702
0.24979484
0.27335119
0.25904031
0.2051113
0.14647654
0.093538374
0.050072949
0.031352503
0.042181759
0.063725796
0.079534418
0.087743567
0.096557356
0.11500485
0.14441885
0.17907539
0.21422968
-0.045285652
-0.069880324
-0.033178074
-0.024239899
0.00060606662
-0.047937697
-0.10225837
-0.034435932
0.029434516
0.0097425019
-0.016862515
-0.070844772
-0.10284586
-0.057218124
-0.0040571613
0.025834767
0.050723459
0.091455504
0.056224071
-0.073201919
-0.21187837
-0.2375889
-0.11761003
0.031548909
0.1111158
0.15550012
0.1988771
0.24070957
0.26537136
0.24997783
0.19549339
0.1379833
0.08466797
0.037625323
0.016653797
0.031162241
0.058086254
0.0767578
0.085099629
0.092688019
0.11043652
0.14072058
0.17776689
0.21532045
0.24948313
-0.017951224
-0.057772274
-0.081357403
-0.036813637
-0.013272518
0.016309554
-0.045296571
-0.10912159
-0.034402142
0.032390449
0.010687431
-0.057761132
-0.087593157
-0.048060333
-0.0079501989
0.01102969
0.032961779
0.076396484
0.05004972
-0.06989019
-0.20556734
-0.23703716
-0.12615596
0.01944235
0.10224731
0.14588459
0.18825109
0.23070952
0.2560981
0.2399317
0.18583114
0.12993993
0.076134417
0.024589766
0.00050162906
0.01875753
0.051903061
0.074074997
0.082721566
0.089038391
0.10595514
0.13668199
0.1753709
0.21556995
0.25192582
0.28163428
-0.04418453
-0.018460467
-0.069552591
-0.092116108
-0.039915149
-0.0023962796
0.031522038
-0.042150767
-0.11494999
-0.034005006
0.035057499
0.011530046
-0.071538579
-0.037777869
-0.010916568
-0.0037069343
0.014762248
0.060626769
0.043407454
-0.066291657
-0.19785801
-0.23437006
-0.13285176
0.0081767826
0.090898938
0.13517002
0.17665134
0.21948613
0.24549066
0.22917905
0.17623377
0.12220919
0.067394325
0.010258778
-0.017385127
0.0048946496
0.045105577
0.071450415
0.080696432
0.085798309
0.10186034
0.13280996
0.17254226
0.2149054
0.25387868
0.28517747
0.30776173
-0.054879042
-0.030238004
-0.01832109
-0.08046345
-0.10204305
-0.042476151
0.0082622962
0.046105475
-0.038531385
-0.11971188
-0.033258512
0.037420028
0.012267839
-0.026543592
-0.012985531
-0.018262598
-0.0037149068
0.044314617
0.036412728
-0.062410436
-0.18888666
-0.22954227
-0.13757539
-0.0020336145
0.079728179
0.12172685
0.16442073
0.20658761
0.23337598
0.21785995
0.16672849
0.1146259
0.057944851
-0.0060479735
-0.037542404
-0.010596795
0.03759795
0.068784061
0.079008793
0.083067208
0.098314878
0.1293673
0.16970127
0.21365114
0.2553155
0.28871155
0.3119176
0.32618096
-0.014546961
-0.037821535
-0.016047144
-0.017477513
-0.090357878
-0.11103726
-0.044496768
0.018586106
0.059938177
-0.034478026
-0.12339552
-0.032183154
0.03946897
0.012900762
-0.014209656
-0.032525983
-0.022296266
0.027648153
0.029197128
-0.058235126
-0.17875987
-0.22268208
-0.14012227
-0.011098922
0.068898441
0.10813233
0.14723898
0.19607962
0.22041261
0.20618879
0.15737407
0.1070707
0.047518079
-0.024594536
-0.060303553
-0.027926691
0.029269569
0.065921923
0.077548602
0.080827661
0.095351559
0.12642571
0.16701168
0.21202826
0.25613247
0.29228863
0.3165665
0.33011441
0.33568726
-0.014661732
-0.0019900857
-0.020571965
-0.0017372485
-0.015890897
-0.099108913
-0.11901262
-0.045983667
0.028467919
0.072916812
-0.030038546
-0.12600991
-0.030805953
0.041203105
0.013429518
-0.046389785
-0.040799471
0.010833507
0.021906497
-0.053739621
-0.16755814
-0.21390332
-0.14042418
-0.018876957
0.058447203
0.094491711
0.12970588
0.17629154
0.20952841
0.19460739
0.14824469
0.099471979
0.036114644
-0.04516029
-0.085550249
-0.047179165
0.020027118
0.062682828
0.076110324
0.078958465
0.092891741
0.12390251
0.16444377
0.21006617
0.2562571
0.2953455
0.32189361
0.33530793
0.3397431
0.33631285
-0.05975315
-0.014429966
0.010918844
-0.0033333792
0.012568308
-0.013539193
-0.1066134
-0.12589906
-0.046949334
0.037812228
0.084957187
-0.025270884
-0.12758425
-0.029160171
0.042629323
0.013850041
-0.059036969
-0.0059091403
0.014698731
-0.048886008
-0.15534204
-0.20329107
-0.13850911
-0.025190774
0.048463924
0.080693764
0.1117674
0.15720538
0.19457579
0.1854746
0.13923541
0.091751668
0.023947227
-0.067136502
-0.11275147
-0.068186654
0.0098377829
0.05890135
0.074490165
0.077271167
0.0907735
0.1216123
0.16183118
0.20764524
0.25553473
0.29744073
0.32686065
0.34189452
0.34418347
0.3397193
0.3294499
-0.076820172
-0.072523192
-0.013614194
0.023971934
0.013698568
0.026748623
-0.010417827
-0.1127947
-0.13164472
-0.047412012
0.046537252
0.095993373
-0.020243138
-0.12817604
-0.027286834
0.043751363
0.014141421
-0.022350902
0.0077405508
-0.043627764
-0.14216027
-0.19091426
-0.13440737
-0.029892091
0.039069685
0.066779009
0.093079226
0.13693168
0.17836582
0.17638219
0.13273928
0.08380977
0.011306832
-0.089583626
-0.14112331
-0.09054106
-0.0012376576
0.054466027
0.07249044
0.075562523
0.088785275
0.11931575
0.15892439
0.20454013
0.25372201
0.29818181
0.33069244
0.34831979
0.35176093
0.34487393
0.33241896
0.31633301
-0.038259447
-0.093964155
-0.084615784
-0.012320173
0.036967623
0.030341266
0.040687982
-0.0065411576
-0.11760471
-0.13621651
-0.047395524
0.054575678
0.10598496
-0.015026548
-0.12788619
-0.025231186
0.044499478
0.014346576
0.0012036193
-0.037913384
-0.12805997
-0.17682735
-0.12812777
-0.032877403
0.030378721
0.052871037
0.073607337
0.11496804
0.1600591
0.16574037
0.12810465
0.079413235
-0.0017292954
-0.11146151
-0.16963642
-0.11366872
-0.013040263
0.049337272
0.069962672
0.073650114
0.086712434
0.11676432
0.15544799
0.20046824
0.25051104
0.29717956
0.33278254
0.35362631
0.35923599
0.35254155
0.33730597
0.31894886
0.298185
-0.0047387396
-0.053403886
-0.11029006
-0.095956087
-0.010655228
0.049715857
0.046428301
0.054278593
-0.0019413841
-0.12102317
-0.13960036
-0.046929028
0.061876361
0.11493788
-0.0096813191
-0.12679252
-0.023041578
0.045070813
0.014502799
-0.031690026
-0.1130964
-0.16107967
-0.11967438
-0.034067905
0.022484832
0.039091933
0.053482959
0.091317326
0.13951318
0.1532015
0.12227157
0.078035755
-0.0097632079
-0.13291553
-0.19680302
-0.13688715
-0.02532338
0.043550698
0.066828105
0.07139505
0.084373334
0.11373548
0.15114762
0.19514537
0.24557739
0.29405859
0.33264702
0.35709021
0.36576842
0.36048899
0.34516332
0.32358704
0.30040826
0.2763187
-0.024907847
-0.0099159913
-0.067559222
-0.12563021
-0.1064782
-0.0087238404
0.06204203
0.06181215
0.067421592
0.0033336037
-0.12305457
-0.14179988
-0.046045518
0.068406862
0.12292048
-0.004287742
-0.12498885
-0.020791526
0.045470831
0.014600009
-0.097339842
-0.1437387
-0.10906346
-0.033394012
0.015461996
0.025544205
0.032870135
0.066098028
0.11670758
0.13873945
0.11513302
0.07555332
-0.0099405495
-0.15200461
-0.22135379
-0.15932257
-0.037761263
0.037211756
0.063078344
0.06871771
0.081636113
0.11005707
0.14581976
0.1883291
0.23862821
0.28848437
0.32989535
0.35819778
0.37062577
0.36793124
0.35331106
0.33073273
0.30457533
0.27816505
0.25198685
-0.080878736
-0.017524843
-0.014165899
-0.080512048
-0.139842
-0.11612434
-0.0066237541
0.073790179
0.076368112
0.080028961
0.0092202818
-0.12372466
-0.14283493
-0.044783899
0.074157857
0.12993187
0.00018362802
-0.12304997
-0.018390552
0.045696203
0.01463418
-0.12490606
-0.096336987
-0.030798045
0.0093692775
0.012317262
0.011938678
0.039466842
0.091711512
0.12234063
0.1067131
0.071915314
-0.011276568
-0.158764
-0.25176397
-0.17984794
-0.049966046
0.030472317
0.058761548
0.065596642
0.078424184
0.10561783
0.13932677
0.17984411
0.22943523
0.28018555
0.32421314
0.35657038
0.37331127
0.37410029
0.36146038
0.33906749
0.31124534
0.28177636
0.25347577
0.22632456
-0.10472854
-0.063819616
-0.0095107972
-0.017339053
-0.09206605
-0.15275532
-0.12484418
-0.0044425575
0.084826831
0.089994035
0.092023204
0.01563443
-0.12309054
-0.14275865
-0.043205868
0.079182094
0.13490029
0.0037364503
-0.12049164
-0.015825926
0.045742769
0.014603662
-0.081577553
-0.02624635
0.0042546615
-0.0005082886
-0.0091273785
0.011627125
0.064657675
0.10405229
0.097042182
0.067230982
-0.013007476
-0.16605133
-0.2705242
-0.20776772
-0.061814601
0.02352123
0.053976523
0.062054553
0.074712237
0.10036788
0.13159909
0.16959162
0.21784903
0.26896419
0.31534824
0.35190224
0.37346975
0.37852192
0.3688501
0.34776847
0.31941576
0.28788491
0.25645902
0.22746037
0.20033812
-0.064921737
-0.083400613
-0.046284589
-0.00085088201
-0.019304694
-0.10204634
-0.16422116
-0.13259402
-0.0022552947
0.095043066
0.10261071
0.10333643
0.022474704
-0.12127177
-0.1417015
-0.04141778
0.083621266
0.13893615
0.0072881026
-0.1173359
-0.01313923
0.045607498
0.014508132
-0.019742596
0.00015532178
-0.012860113
-0.030124697
-0.017157247
0.035758302
0.083979054
0.086186293
0.06159742
-0.015117377
-0.17203532
-0.28978377
-0.23565874
-0.080122852
0.016183528
0.048969788
0.058194593
0.070520952
0.094306896
0.12263345
0.15754722
0.20380193
0.2547002
0.30310623
0.34392385
0.37080619
0.38086419
0.37505684
0.35621946
0.32836789
0.29567404
0.26193459
0.22980346
0.20115353
0.17485309
-0.011341461
-0.046565941
-0.061159166
-0.028407246
0.0084508166
-0.019956242
-0.11030543
-0.17414396
-0.13933549
-0.00012314977
0.10435424
0.11416327
0.11392241
0.029654871
-0.11843402
-0.13979193
-0.038554806
0.088233895
0.14236114
0.010787272
-0.11363353
-0.010388907
0.045291325
0.014348853
-0.0029047711
-0.024673612
-0.050833536
-0.04655349
0.0053177315
0.062296157
0.074261571
0.055134892
-0.01750327
-0.1764748
-0.30732201
-0.26226594
-0.10566048
0.0055721984
0.044052558
0.054388688
0.065962884
0.087491082
0.11247318
0.14375796
0.18730956
0.2373621
0.28736723
0.33240436
0.36505011
0.38084771
0.37977749
0.36410182
0.33762424
0.30460995
0.26914855
0.23455945
0.20288176
0.17535592
0.15052091
-0.0049181234
-0.0011610032
-0.026764947
-0.0382725
-0.010328106
0.018369146
-0.019216734
-0.116729
-0.18242848
-0.14503449
0.0019075171
0.11269987
0.12461566
0.12379825
0.037135973
-0.1145866
-0.13640187
-0.03499097
0.09251296
0.14517749
0.014163502
-0.1094313
-0.0076385777
0.044799822
0.014128779
-0.035890692
-0.071023764
-0.076158458
-0.0262575
0.039264396
0.061441266
0.048007221
-0.020087566
-0.17927973
-0.3216222
-0.28769045
-0.13074193
-0.010281878
0.036511325
0.051503054
0.061335395
0.080022184
0.10123627
0.12832473
0.16847588
0.21703208
0.26813404
0.31719811
0.35598416
0.37822753
0.38272924
0.37125806
0.34692668
0.31431036
0.2777583
0.24104523
0.20676869
0.17655323
0.1507746
0.12783672
-0.046458531
-0.0058974465
0.010610842
-0.0058261321
-0.015026485
0.0078096873
0.028857366
-0.017043244
-0.12123887
-0.18899897
-0.14966149
0.0038051023
0.12004338
0.13397492
0.13308118
0.044811031
-0.1104839
-0.13283383
-0.031060437
0.096315554
0.14736106
0.017343364
-0.10478944
-0.0049542517
0.044142727
0.013852435
-0.090461013
-0.10550195
-0.058450214
0.015243878
0.047961971
0.040419898
-0.022753528
-0.18040443
-0.3321981
-0.31021312
-0.15510502
-0.026676567
0.027677023
0.044506502
0.057637899
0.072212593
0.08901986
0.11143993
0.1474989
0.19393819
0.24560881
0.2983455
0.34353027
0.37284863
0.38370251
0.37731454
0.35613333
0.32466029
0.28754251
0.24908548
0.21238902
0.17951141
0.1514546
0.12789112
0.10713593
-0.10891176
-0.056328664
-0.0058800468
0.023718105
0.015902119
0.0082890175
0.025864237
0.039848815
-0.013427505
-0.12379285
-0.19380207
-0.15319074
0.0055524067
0.1263789
0.14238857
0.14172507
0.0505481
-0.10731575
-0.1283975
-0.026755728
0.099591143
0.14887371
0.02025112
-0.099784522
-0.002399936
0.043333173
0.013525633
-0.13405471
-0.090629699
-0.0092974031
0.034127233
0.032621198
-0.025357462
-0.17980417
-0.33876057
-0.32868034
-0.1779522
-0.043180453
0.018212402
0.038685511
0.049852372
0.064506919
0.076270045
0.093247181
0.12468961
0.16848579
0.22027457
0.27620676
0.32791794
0.36467994
0.38306169
0.38219415
0.36509973
0.33556032
0.29843817
0.25850833
0.21958799
0.18408897
0.15346473
0.12807373
0.10703407
0.088617384
-0.16124486
-0.12614996
-0.06545666
-0.0049319211
0.037845819
0.038046315
0.031391785
0.04369808
0.051259632
-0.0083954629
-0.12437763
-0.19680142
-0.15559891
0.0071393188
0.13172351
0.15001474
0.14777183
0.054508043
-0.10333045
-0.12306112
-0.022164582
0.10229546
0.14968717
0.022814311
-0.094508247
-3.1516848e-05
0.042386709
0.013155045
-0.1220589
-0.033783153
0.020308487
0.024898295
-0.027724075
-0.17744036
-0.34110266
-0.34244314
-0.1981451
-0.059276621
0.0081696829
0.032608474
0.043929421
0.054288269
0.062886001
0.074345068
0.10038278
0.14124047
0.19292816
0.25154645
0.30986364
0.35419334
0.37987958
0.38582605
0.37369377
0.34693584
0.31041814
0.26939331
0.22831069
0.19017009
0.15685076
0.12911124
0.10673487
0.088395688
0.072373443
-0.15193199
-0.18648806
-0.14196554
-0.07380164
-0.0031500016
0.052634641
0.060223878
0.054016907
0.061180646
0.062989922
-0.0020125689
-0.12300834
-0.19798295
-0.15687757
0.0085668233
0.13625721
0.15536615
0.1528639
0.05839518
-0.098589703
-0.11691816
-0.017386484
0.10437971
0.14979186
0.024971525
-0.089058607
0.0021108206
0.041320889
0.01274794
-0.057543265
0.0069387107
0.017570493
-0.029649651
-0.17327998
-0.33911653
-0.35100182
-0.2147216
-0.074293889
-0.0019380587
0.025826037
0.038502167
0.045690595
0.048899607
0.054038046
0.075244914
0.11291711
0.16463517
0.22545661
0.290555
0.34220363
0.37523612
0.3882133
0.38183575
0.3587201
0.32347393
0.28172949
0.23861721
0.19774368
0.16155604
0.13118362
0.10677949
0.087624233
0.072059265
0.058415984
-0.079837887
-0.17941615
-0.20922085
-0.15616982
-0.081326169
-0.0006617353
0.06769929
0.082058859
0.075924467
0.078189359
0.074921913
0.0056041962
-0.11976954
-0.19739432
-0.15713126
0.0096996605
0.14039452
0.16079626
0.15736308
0.062223078
-0.093165326
-0.1100615
-0.012530453
0.10580887
0.14919783
0.026681704
-0.083531658
0.0040086858
0.040155963
0.012312315
-0.0055016921
0.010977964
-0.030906767
-0.16729694
-0.33279984
-0.35399069
-0.22697563
-0.087468338
-0.011606772
0.018840552
0.032664028
0.038166186
0.03621274
0.035139253
0.048089473
0.084029763
0.13658277
0.19915841
0.2713965
0.33020876
0.36999963
0.38976832
0.38956454
0.37085684
0.337604
0.29559673
0.25046025
0.20688372
0.16759924
0.13428671
0.10743933
0.086663157
0.070819248
0.058022941
0.046698704
-0.016508267
-0.099889375
-0.20368168
-0.22892773
-0.16860071
-0.087996472
0.0023786984
0.082648375
0.10319658
0.096905162
0.094608113
0.086921463
0.014291056
-0.11487206
-0.19540237
-0.15668159
0.01344529
0.1455779
0.1656919
0.16131695
0.065921183
-0.087125496
-0.10260478
-0.0077218291
0.10657403
0.14793505
0.027931484
-0.078017698
0.0056665969
0.038916295
0.011857385
0.0054658942
-0.031253688
-0.15947436
-0.32225135
-0.35122069
-0.23436021
-0.098087498
-0.02036189
0.012167537
0.026628822
0.030933813
0.024543576
0.016002936
0.02443093
0.053698704
0.10932089
0.17350994
0.2536222
0.31945797
0.36528577
0.39116549
0.39708887
0.38332683
0.35278232
0.31102756
0.26422414
0.21770432
0.17508889
0.13846739
0.10875639
0.085839366
0.068850395
0.056320292
0.046224963
0.037135476
0.0013641434
-0.025587487
-0.11693994
-0.22396691
-0.24517138
-0.17912942
-0.093782911
0.0057981412
0.097103315
0.12331621
0.11678292
0.11032508
0.098863202
0.023891867
-0.10855449
-0.19210279
-0.15238114
0.019483771
0.15041274
0.16994264
0.1647114
0.069415714
-0.08056819
-0.094703101
-0.0030937069
0.10669592
0.14605368
0.028738939
-0.072597684
0.0071093717
0.03763371
0.011394768
-0.030447983
-0.14980822
-0.307665
-0.34269122
-0.23648038
-0.10556858
-0.027716871
0.0061780851
0.020883952
0.023804408
0.013593793
-0.0022395183
-0.0034872474
0.02835206
0.082587322
0.14772427
0.23804363
0.31065677
0.36194774
0.39312712
0.40475173
0.39615398
0.36894847
0.32801615
0.2798295
0.23040171
0.18418046
0.14385383
0.11080126
0.085235945
0.066504888
0.053353014
0.044075649
0.036570153
0.029614207
-0.028263667
-0.0010357884
-0.032297372
-0.13032187
-0.23964931
-0.25762862
-0.18766385
-0.09866086
0.0094157421
0.11071669
0.14214046
0.13541131
0.12525025
0.11069666
0.034315128
-0.10072841
-0.1862788
-0.14669123
0.025996811
0.15470886
0.1736044
0.167492
0.072627148
-0.073631968
-0.0865502
0.0012304253
0.10622452
0.14362345
0.029152648
-0.067346411
0.0083760474
0.036352382
0.010941335
-0.13831193
-0.28932132
-0.32858024
-0.23313488
-0.10946828
-0.033204346
0.0012069374
0.015806153
0.017011664
0.0030029776
-0.019262921
-0.030775605
-0.0073916626
0.062084607
0.11896597
0.2239398
0.30355331
0.36003221
0.39593777
0.41280516
0.40935366
0.38598634
0.34647958
0.29729726
0.24505254
0.19502933
0.15061068
0.11371198
0.084942503
0.063901703
0.049482562
0.040130465
0.033992284
0.028940421
0.024007242
-0.12502325
-0.024510693
-0.0015039276
-0.036287604
-0.13951784
-0.25029741
-0.26611601
-0.19414899
-0.10261194
0.013054201
0.12318791
0.1594413
0.15267068
0.13939315
0.12247124
0.045420477
-0.093606856
-0.18168844
-0.13970131
0.03302088
0.15842809
0.17665525
0.16960869
0.075474261
-0.066489168
-0.078360884
0.0051552076
0.10523712
0.14073241
0.029243702
-0.062342269
0.009510981
0.035135702
0.010524481
-0.26757653
-0.30919975
-0.22433376
-0.10949082
-0.036426387
-0.0023991736
0.011675961
0.010876585
-0.0072190342
-0.035625468
-0.056389849
-0.042438432
0.021660233
0.13889466
0.21189745
0.29709852
0.35868551
0.39909408
0.42102637
0.42275007
0.40365047
0.36622291
0.31653701
0.26166702
0.20773811
0.15889125
0.11765216
0.08509839
0.06114465
0.044856982
0.034764942
0.029104886
0.025952526
0.023204407
0.020178537
-0.24285065
-0.1100117
-0.019054222
0.00010733751
-0.037337687
-0.14420995
-0.25571184
-0.27059782
-0.19856605
-0.10562587
0.01655208
0.13427476
0.17504384
0.16852379
0.15294607
0.13401725
0.053654071
-0.089285519
-0.17543753
-0.1311695
0.040412713
0.16152582
0.17905249
0.17102795
0.07788044
-0.059329022
-0.070345061
0.0086279644
0.10383473
0.13748594
0.029091577
-0.057685035
0.010555373
0.034081356
0.010180509