/*--------------------------------*- C++ -*----------------------------------*\
| =========                 |                                                 |
| \\      /  F ield         | OpenFOAM: The Open Source CFD Toolbox           |
|  \\    /   O peration     | Version:  2112                                  |
|   \\  /    A nd           | Website:  www.openfoam.com                      |
|    \\/     M anipulation  |                                                 |
\*---------------------------------------------------------------------------*/
FoamFile
{
    version     2.0;
    format      ascii;
    arch        "LSB;label=32;scalar=64";
    class       volVectorField;
    location    "2";
    object      U;
}
// * * * * * * * * * * * * * * * * * * * * * * * * * * * * * * * * * * * * * //

dimensions      [0 1 -1 0 0 0 0];

internalField   nonuniform List<vector> 
10936
(
(0.079590964 -2.8133263e-05 0)
(0.223367 -0.00036324989 0)
(0.079574688 0.00027947948 0)
(0.35113222 -0.00098110007 0)
(0.2261763 0.0010643088 0)
(0.074343902 6.4558769e-05 0)
(0.4651717 -0.0016790165 0)
(0.35615749 0.0017224096 0)
(0.21833536 0.00083548434 0)
(0.073151926 -0.00019183007 0)
(0.5670895 -0.0024094414 0)
(0.47160648 0.0022328686 0)
(0.34842687 0.0016874628 0)
(0.21424364 -0.00033909328 0)
(0.077906231 -0.00051569331 0)
(0.65823426 -0.0031287415 0)
(0.57435222 0.0026567883 0)
(0.46407078 0.0025208936 0)
(0.34316195 -0.00021170208 0)
(0.21875474 -0.0023851688 0)
(0.087448856 -0.00028797737 0)
(0.73987908 -0.0038214967 0)
(0.66590005 0.0030716987 0)
(0.56637639 0.0033727934 0)
(0.45804282 3.0676909e-05 0)
(0.34651246 -0.0041937528 0)
(0.23378066 -0.0026866606 0)
(0.094886492 5.6891646e-05 0)
(0.81321643 -0.0044400161 0)
(0.74756872 0.0035603754 0)
(0.65667151 0.0043532712 0)
(0.55896684 0.00040234761 0)
(0.46053946 -0.0059240208 0)
(0.36221038 -0.0055452343 0)
(0.25062242 -0.0014784009 0)
(0.094758815 0.00060229236 0)
(0.87933566 -0.0049747946 0)
(0.82054947 0.0041668496 0)
(0.73613019 0.0055802444 0)
(0.64675375 0.00096549362 0)
(0.5605254 -0.0075269323 0)
(0.47609453 -0.0085010048 0)
(0.38310705 -0.0040167753 0)
(0.25737395 0.001468515 0)
(0.084933933 0.00080931551 0)
(0.9392098 -0.0054181481 0)
(0.88590375 0.0049703813 0)
(0.80578634 0.0071621051 0)
(0.72250215 0.001800585 0)
(0.64710993 -0.0090383033 0)
(0.57628435 -0.011422716 0)
(0.49904723 -0.006933482 0)
(0.39485762 0.0014606769 0)
(0.2478189 0.0042962489 0)
(0.071123559 0.00023235649 0)
(0.99367833 -0.0057576496 0)
(0.94454101 0.0060449125 0)
(0.86660926 0.0091689319 0)
(0.78751892 0.0029334606 0)
(0.72160964 -0.01050777 0)
(0.66381524 -0.014399111 0)
(0.60135447 -0.01008368 0)
(0.51408533 0.00098193047 0)
(0.3880363 0.0073835042 0)
(0.22556651 0.0039989804 0)
(0.063254179 -0.00036847123 0)
(1.0434395 -0.0059789218 0)
(0.99724172 0.0074463148 0)
(0.91959651 0.011622142 0)
(0.84334202 0.0043369707 0)
(0.78578137 -0.012015623 0)
(0.74030773 -0.017576963 0)
(0.6920827 -0.01348215 0)
(0.61910576 0.00021838611 0)
(0.50866417 0.010338604 0)
(0.36461009 0.0081344473 0)
(0.20600911 0.00093680921 0)
(0.068630274 -0.0012003337 0)
(1.0890554 -0.0060678692 0)
(1.0446593 0.0092018954 0)
(0.96582486 0.014490626 0)
(0.89167958 0.0059301336 0)
(0.84159702 -0.01367578 0)
(0.80776485 -0.021105391 0)
(0.77320705 -0.017202147 0)
(0.71252036 -0.0006556051 0)
(0.61362988 0.013260455 0)
(0.48441033 0.012623954 0)
(0.33935702 0.0036690721 0)
(0.20467707 -0.004473382 0)
(0.087359292 -0.0013292544 0)
(1.1309699 -0.0060139156 0)
(1.0873261 0.011302833 0)
(1.0064702 0.017697538 0)
(0.93425921 0.0075967615 0)
(0.89101198 -0.015607345 0)
(0.86824071 -0.025095147 0)
(0.84654962 -0.02130705 0)
(0.79619092 -0.0015226973 0)
(0.70557846 0.016442944 0)
(0.58645881 0.017404445 0)
(0.4548477 0.0070756018 0)
(0.33252213 -0.006485193 0)
(0.22729802 -0.0078103707 0)
(0.10788941 -0.00056315115 0)
(1.169533 -0.0058123889 0)
(1.1257868 0.013708337 0)
(1.0427705 0.021139962 0)
(0.97266103 0.0092128911 0)
(0.9357679 -0.017909009 0)
(0.92354383 -0.029592295 0)
(0.91360382 -0.025727615 0)
(0.87146834 -0.00221235 0)
(0.78619484 0.020206251 0)
(0.67262582 0.022865287 0)
(0.55104987 0.011086969 0)
(0.44391658 -0.0080108923 0)
(0.35257626 -0.014084635 0)
(0.26277431 -0.0066975328 0)
(0.12019969 0.00021719305 0)
(1.205028 -0.005466872 0)
(1.1605706 0.016354601 0)
(1.0758056 0.024708411 0)
(1.0081905 0.010663493 0)
(0.97726398 -0.020636663 0)
(0.97505021 -0.034568618 0)
(0.97540197 -0.030343048 0)
(0.93931817 -0.0025948621 0)
(0.85666965 0.024831268 0)
(0.74444339 0.029344482 0)
(0.62901621 0.01583214 0)
(0.53641829 -0.0090995566 0)
(0.46281538 -0.020218474 0)
(0.39122388 -0.014215722 0)
(0.29324624 -0.0034413839 0)
(0.12066032 0.0011354493 0)
(1.2376923 -0.0049895136 0)
(1.1921817 0.019163125 0)
(1.1064516 0.028234977 0)
(1.0418278 0.011853948 0)
(1.0165083 -0.023792863 0)
(1.0236639 -0.039937515 0)
(1.0325633 -0.035037108 0)
(1.0005191 -0.0025356625 0)
(0.91801992 0.030515961 0)
(0.80346937 0.037006851 0)
(0.69109097 0.021360171 0)
(0.61117825 -0.010063637 0)
(0.55653884 -0.026295012 0)
(0.50292 -0.022198924 0)
(0.4303851 -0.0095695854 0)
(0.30650806 0.0021499572 0)
(0.10722333 0.0019251756 0)
(1.267732 -0.0043987739 0)
(1.2210795 0.02205236 0)
(1.1354232 0.031635537 0)
(1.0742332 0.012787644 0)
(1.054136 -0.027332026 0)
(1.0698822 -0.045573977 0)
(1.0854479 -0.039681113 0)
(1.0557534 -0.0018835391 0)
(0.97122204 0.037329969 0)
(0.85165077 0.045807632 0)
(0.74056495 0.027535884 0)
(0.67123812 -0.011152743 0)
(0.63482417 -0.032738714 0)
(0.60013163 -0.030468164 0)
(0.54736061 -0.016837662 0)
(0.45341209 0.00088888711 0)
(0.29606376 0.0080618786 0)
(0.083609844 0.001484292 0)
(1.2953326 -0.0037166909 0)
(1.2476631 0.024951443 0)
(1.1631944 0.034845022 0)
(1.1057235 0.013432506 0)
(1.0905144 -0.031173524 0)
(1.1139014 -0.051337236 0)
(1.1342822 -0.04414746 0)
(1.1056004 -0.00053190006 0)
(1.0171019 0.045203376 0)
(0.89141268 0.055517765 0)
(0.78120231 0.034058723 0)
(0.72047378 -0.012630753 0)
(0.70051966 -0.039945574 0)
(0.68471466 -0.039348922 0)
(0.65018738 -0.02490268 0)
(0.57721422 -0.0015752432 0)
(0.44809294 0.013073885 0)
(0.26351463 0.011010247 0)
(0.05999056 0.00044307736 0)
(1.3206652 -0.0029679569 0)
(1.2722609 0.027779775 0)
(1.1900342 0.037809932 0)
(1.1364094 0.013786237 0)
(1.125869 -0.035227713 0)
(1.1557102 -0.057083894 0)
(1.1792361 -0.04833082 0)
(1.1505536 0.0015512774 0)
(1.0567861 0.053934747 0)
(0.92563035 0.065773772 0)
(0.81655647 0.040564207 0)
(0.76270782 -0.014712606 0)
(0.75704959 -0.048158419 0)
(0.75912465 -0.049172762 0)
(0.74207485 -0.033781503 0)
(0.68575473 -0.0047886855 0)
(0.57495596 0.017625747 0)
(0.41586007 0.020338062 0)
(0.22182547 0.0096290613 0)
(0.045758066 -0.0006597777 0)
(1.3438891 -0.0021825232 0)
(1.295125 0.030485193 0)
(1.2160361 0.040515557 0)
(1.1662738 0.013870433 0)
(1.1601621 -0.039387785 0)
(1.1951172 -0.062728573 0)
(1.2204799 -0.052167137 0)
(1.1910598 0.0043189928 0)
(1.091559 0.063238657 0)
(0.95677147 0.07619558 0)
(0.84940008 0.046750094 0)
(0.80105777 -0.017516741 0)
(0.8075471 -0.057470551 0)
(0.8259428 -0.060122846 0)
(0.82532554 -0.04352649 0)
(0.78303094 -0.0083903263 0)
(0.68456724 0.021953082 0)
(0.54208396 0.030016114 0)
(0.36845441 0.019912042 0)
(0.18761798 0.0038886449 0)
(0.048311578 -0.0018050117 0)
(1.3674237 -0.0013209782 0)
(1.3164396 0.033056302 0)
(1.2411659 0.042964004 0)
(1.1952202 0.013720223 0)
(1.193255 -0.043556446 0)
(1.2320052 -0.068162428 0)
(1.2581681 -0.055560917 0)
(1.2275531 0.007663396 0)
(1.1226372 0.0728223 0)
(0.98650703 0.086445836 0)
(0.88145867 0.052415803 0)
(0.83762799 -0.021049382 0)
(0.85442162 -0.067819904 0)
(0.88733872 -0.072172215 0)
(0.90160661 -0.054057244 0)
(0.87112003 -0.012110808 0)
(0.7807399 0.026707478 0)
(0.64765626 0.040125477 0)
(0.48989158 0.031547207 0)
(0.32451544 0.011154571 0)
(0.17637765 -0.0049340914 0)
(0.067621053 -0.002331785 0)
(1.3913675 -0.00037460768 0)
(1.3384316 0.035668109 8.5262066e-23)
(1.2653355 0.04514356 0)
(1.2231127 0.013367249 0)
(1.2249594 -0.047652552 0)
(1.2662674 -0.073302292 0)
(1.2924264 -0.058502753 0)
(1.2603558 0.011501231 0)
(1.1510429 0.082437988 0)
(1.0157814 0.096197068 0)
(0.91365127 0.057468644 0)
(0.87357483 -0.025249221 0)
(0.89920869 -0.07903625 0)
(0.94484545 -0.085119208 0)
(0.97202236 -0.065209743 0)
(0.95108434 -0.015608931 0)
(0.86518001 0.032503542 0)
(0.73567849 0.051602563 0)
(0.58670707 0.044309664 0)
(0.43805023 0.019932696 0)
(0.30412011 -0.0048331458 0)
(0.19323769 -0.011515167 0)
(0.093509572 -0.0019102403 0)
(1.4137671 0.00060705073 -1.4636501e-22)
(1.361394 0.038368083 -8.5298126e-23)
(1.2907996 0.047259582 -1.4038132e-23)
(1.2498105 0.012817455 0)
(1.255078 -0.051627114 0)
(1.2978513 -0.07809839 0)
(1.3234377 -0.060976289 0)
(1.2897266 0.015714398 0)
(1.17771 0.091807126 0)
(1.0450688 0.10532455 0)
(0.94632781 0.061986184 0)
(0.90940573 -0.030002584 0)
(0.9427617 -0.090882442 0)
(0.99936035 -0.098685193 0)
(1.0372912 -0.076574226 0)
(1.0234878 -0.018488678 0)
(0.93875367 0.039944911 0)
(0.8075568 0.06531703 0)
(0.66048569 0.059025561 0)
(0.52466995 0.029919357 0)
(0.41200718 -0.0038617289 0)
(0.31613435 -0.018510032 0)
(0.22915189 -0.012717784 0)
(0.11530317 -0.00091559044 0)
(1.4345641 0.0015829786 1.2899994e-22)
(1.3837739 0.040913093 -1.6835962e-22)
(1.3178996 0.049374491 -1.5397408e-23)
(1.2775774 0.012403193 1.1016315e-23)
(1.2834362 -0.055529911 0)
(1.3267925 -0.082565335 0)
(1.3513567 -0.063067822 0)
(1.3162283 0.020058131 0)
(1.2033745 0.10073305 0)
(1.0744214 0.11375863 0)
(0.97933503 0.06596657 0)
(0.94523539 -0.035183357 0)
(0.98552412 -0.10312077 0)
(1.0512187 -0.11256862 0)
(1.0977233 -0.087866864 0)
(1.0886763 -0.020592348 0)
(1.0021884 0.04948958 0)
(0.86438153 0.081733282 0)
(0.71373471 0.076173429 0)
(0.58611418 0.041193199 0)
(0.49458268 -0.0025429958 0)
(0.42352334 -0.025359115 0)
(0.35172783 -0.02342957 0)
(0.26809889 -0.010311886 0)
(0.12940861 -5.6602568e-05 0)
(1.4536979 0.0025256438 0)
(1.4054238 0.043277237 1.5256584e-22)
(1.3446011 0.051259144 1.589968e-22)
(1.3068689 0.012024967 -8.8549991e-24)
(1.3119921 -0.059072679 0)
(1.3532355 -0.086670525 0)
(1.3764142 -0.064817873 0)
(1.3403526 0.024433829 0)
(1.2281569 0.10912244 0)
(1.1036803 0.12148327 0)
(1.0124103 0.069448556 0)
(0.98099144 -0.040659594 0)
(1.0275567 -0.11551552 0)
(1.1004538 -0.12652787 0)
(1.1534369 -0.098811094 0)
(1.1470888 -0.021706229 0)
(1.0564897 0.061222677 0)
(0.90836293 0.10070577 0)
(0.75164321 0.095528046 0)
(0.62782858 0.05355158 0)
(0.55357084 -0.0015953936 0)
(0.50961594 -0.032631679 0)
(0.46090352 -0.034318767 0)
(0.39521185 -0.021610203 0)
(0.30033094 -0.0068513783 0)
(0.13641007 0.00057104686 0)
(1.4710953 0.0034117178 1.2473813e-22)
(1.4261424 0.045436726 0)
(1.3706079 0.052923381 -1.2373131e-22)
(1.335598 0.011522272 1.5889054e-23)
(1.3411536 -0.062677941 3.8748655e-23)
(1.3789433 -0.090458893 4.6588809e-22)
(1.3989841 -0.066194272 0)
(1.3624023 0.028811634 0)
(1.2520656 0.11695501 0)
(1.1326208 0.12853123 0)
(1.0452692 0.072471169 0)
(1.0165934 -0.046327663 0)
(1.0686783 -0.12787124 0)
(1.1469463 -0.140271 0)
(1.2044743 -0.10912339 0)
(1.1991221 -0.021769759 0)
(1.1028913 0.07494686 0)
(0.9431964 0.12156004 0)
(0.78138727 0.11629302 0)
(0.65780695 0.066476273 0)
(0.59479274 -0.0015162349 0)
(0.57543683 -0.041225868 0)
(0.5533036 -0.04575688 0)
(0.50746788 -0.033616853 0)
(0.43512884 -0.016709779 0)
(0.32296884 -0.0031060722 0)
(0.13659888 0.001103715 0)
(1.4866709 0.0042249739 -1.2482313e-22)
(1.4457051 0.047375069 1.7521875e-23)
(1.3956131 0.054379435 0)
(1.3634195 0.010954829 -4.862316e-23)
(1.3691251 -0.066192957 2.2562792e-22)
(1.4043752 -0.09438725 4.5028128e-22)
(1.4208935 -0.067646759 -4.8475858e-22)
(1.3824828 0.033243293 0)
(1.275074 0.12430482 0)
(1.1609863 0.13497321 0)
(1.077585 0.075084553 0)
(1.0518369 -0.052113194 0)
(1.1084464 -0.1399809 0)
(1.1905035 -0.15356563 0)
(1.2509369 -0.11870209 0)
(1.2453937 -0.020684964 0)
(1.142537 0.090398963 0)
(0.97344587 0.14325888 0)
(0.80934917 0.13727767 0)
(0.68381081 0.079321153 0)
(0.62565404 -0.0025013838 0)
(0.6255545 -0.051734218 0)
(0.62935617 -0.05849918 0)
(0.605365 -0.046106972 0)
(0.55145733 -0.027752848 0)
(0.46648298 -0.010153797 0)
(0.33396656 0.0011374281 0)
(0.12970272 0.001801638 0)
(1.5003308 0.00495055 0)
(1.4638802 0.049081869 1.3544183e-22)
(1.419318 0.055637818 -1.8116142e-23)
(1.3900088 0.010351066 0)
(1.3956384 -0.069530544 2.4669394e-23)
(1.4281737 -0.098030407 -2.3355064e-22)
(1.442384 -0.06987747 -4.6801086e-22)
(1.4026814 0.036743697 4.7982314e-22)
(1.2971884 0.13111111 0)
(1.1885381 0.14088236 0)
(1.1090935 0.077356707 0)
(1.0862775 -0.057858576 0)
(1.1464214 -0.15165235 0)
(1.2309966 -0.16624647 0)
(1.2930164 -0.12748939 0)
(1.286622 -0.01861754 0)
(1.1775335 0.10661073 0)
(1.0035558 0.16451001 0)
(0.83949385 0.15745722 0)
(0.71123919 0.091592042 0)
(0.65267374 -0.0045015987 0)
(0.66559393 -0.064224369 0)
(0.6918762 -0.072980046 0)
(0.68911426 -0.059392035 0)
(0.65310493 -0.039291563 0)
(0.5874164 -0.018591872 0)
(0.48551831 -0.0017971771 0)
(0.33185298 0.0057018762 0)
(0.11583265 0.0023562193 0)
(1.5119788 0.0055783061 0)
(1.4804429 0.050553226 -1.3541173e-22)
(1.4414443 0.056710296 1.889075e-22)
(1.4150667 0.0097365375 6.867526e-23)
(1.4204422 -0.072656615 0)
(1.4501736 -0.10137346 0)
(1.4623483 -0.071845684 6.8683337e-22)
(1.4235205 0.039289891 4.4594508e-22)
(1.3205135 0.13691198 -9.164998e-22)
(1.2150966 0.14625034 0)
(1.1395992 0.079289618 0)
(1.1196042 -0.063468788 0)
(1.1824728 -0.16281697 0)
(1.2684796 -0.17822136 0)
(1.3309096 -0.1354633 0)
(1.3233697 -0.015771838 0)
(1.2095571 0.12293633 0)
(1.0352438 0.1847891 0)
(0.87324988 0.17636389 0)
(0.7428993 0.10333747 0)
(0.68029032 -0.0071641311 0)
(0.70048538 -0.078347975 0)
(0.74426543 -0.089165158 0)
(0.76019963 -0.073702984 0)
(0.74133439 -0.051319307 0)
(0.69253398 -0.027766261 0)
(0.61136432 -0.0061154843 0)
(0.48869097 0.0079732766 0)
(0.31683678 0.010197471 0)
(0.09701597 0.002271594 0)
(1.5215213 0.0061020893 9.5487816e-23)
(1.4951861 0.05179006 0)
(1.4617413 0.057609625 -3.6218336e-22)
(1.4383242 0.0091335256 -1.5162681e-22)
(1.4433054 -0.075541729 2.2266216e-22)
(1.4702058 -0.10442396 -7.137745e-22)
(1.480656 -0.07358574 -6.5584816e-22)
(1.44337 0.042055744 -1.6291323e-21)
(1.3455261 0.14257414 -9.0423986e-22)
(1.2429138 0.1512807 9.516101e-22)
(1.1689395 0.080713123 0)
(1.1515906 -0.068919699 0)
(1.2164968 -0.17341399 0)
(1.3031258 -0.18936327 0)
(1.3647808 -0.1426161 0)
(1.3560454 -0.012245907 0)
(1.2397887 0.13887022 0)
(1.0685172 0.20370506 0)
(0.91020835 0.19389973 0)
(0.77897372 0.11458228 0)
(0.71086702 -0.010123579 0)
(0.73353359 -0.093544196 0)
(0.78963472 -0.10670456 0)
(0.82103438 -0.089120308 0)
(0.81800251 -0.064136188 0)
(0.78520432 -0.037772106 0)
(0.72109949 -0.011544639 0)
(0.61939338 0.0089369634 0)
(0.47664349 0.017119744 0)
(0.29117522 0.01316194 0)
(0.076962593 0.0015095028 0)
(1.5288711 0.0065164921 -9.1995754e-23)
(1.5079268 0.052796292 0)
(1.4799911 0.058348628 1.6919006e-22)
(1.4595448 0.0085622798 1.2488358e-22)
(1.4640231 -0.078158831 2.017214e-22)
(1.4881067 -0.10717421 4.8115021e-22)
(1.4971526 -0.075168696 0)
(1.4620448 0.044697022 2.3537391e-21)
(1.3700898 0.14789303 0)
(1.2727265 0.15726773 9.3782371e-22)
(1.1991516 0.083333488 -3.7298025e-22)
(1.1820733 -0.074967796 0)
(1.2484369 -0.18349367 0)
(1.334905 -0.19964742 0)
(1.3947999 -0.14905505 0)
(1.3853047 -0.0083806365 0)
(1.2689467 0.15395647 0)
(1.102646 0.22110406 0)
(0.94906868 0.21012247 0)
(0.81819805 0.12535332 0)
(0.74470734 -0.012946212 0)
(0.76634837 -0.10901735 0)
(0.83046958 -0.12512103 0)
(0.87421864 -0.10563704 0)
(0.8858637 -0.078093958 0)
(0.86868044 -0.049140087 0)
(0.82054083 -0.018465413 0)
(0.73501689 0.0083805593 0)
(0.61075324 0.023158957 0)
(0.45175533 0.023604272 0)
(0.26010505 0.013417172 0)
(0.059963584 0.00054189779 0)
(1.5339538 0.0068118232 -3.4151949e-24)
(1.5185071 0.053578145 1.4669561e-22)
(1.4960126 0.058939667 -1.881086e-22)
(1.4785246 0.0080400545 0)
(1.4824176 -0.080485433 -1.2808921e-22)
(1.5037225 -0.10961537 0)
(1.5116669 -0.076612138 -8.543875e-22)
(1.4793659 0.047154071 -3.2412248e-21)
(1.3939848 0.15287005 5.8103414e-22)
(1.302314 0.16274712 3.087862e-22)
(1.2309744 0.088218603 0)
(1.2119211 -0.077985977 3.8755194e-22)
(1.2782539 -0.19352746 0)
(1.3639041 -0.20913317 0)
(1.4213528 -0.15482994 0)
(1.4115866 -0.0043826503 0)
(1.2969519 0.16812091 0)
(1.1366977 0.2370674 0)
(0.98845739 0.22515173 0)
(0.85908834 0.13571715 0)
(0.78105669 -0.015297642 0)
(0.79970578 -0.12419989 0)
(0.86853805 -0.14397074 0)
(0.92216036 -0.12316071 0)
(0.94738806 -0.093568474 0)
(0.94588777 -0.062479377 0)
(0.91379516 -0.027380628 0)
(0.84210472 0.0061851873 0)
(0.73069106 0.027862664 0)
(0.58817157 0.033481182 0)
(0.4195261 0.025098493 0)
(0.23044353 0.010738784 0)
(0.049404548 -0.00041014621 0)
(1.536699 0.0070166952 0)
(1.5267938 0.054144234 -1.4720066e-22)
(1.5096651 0.05939459 1.5365674e-22)
(1.4950927 0.0075817072 -1.1969151e-22)
(1.4983382 -0.082505115 -1.1268406e-22)
(1.5169171 -0.11174154 6.186288e-23)
(1.524021 -0.077913326 1.4043812e-21)
(1.4951507 0.049405054 9.1952729e-22)
(1.4169492 0.15747913 -1.0112307e-21)
(1.3314563 0.16787373 -3.0615274e-22)
(1.2628174 0.09247558 3.4252063e-22)
(1.2424738 -0.079394453 -3.1649124e-22)
(1.3053272 -0.2009201 1.7238081e-21)
(1.3902434 -0.21790612 0)
(1.444828 -0.16003486 0)
(1.4351956 -0.0004384731 0)
(1.3236118 0.18120833 0)
(1.1699077 0.25167888 0)
(1.0272092 0.23906981 0)
(0.90036469 0.14568855 0)
(0.81896545 -0.017082213 0)
(0.83388239 -0.13876911 0)
(0.9049926 -0.16288783 0)
(0.96665324 -0.14159265 0)
(1.0044047 -0.11079128 0)
(1.0191297 -0.078053585 0)
(1.0028732 -0.038343478 0)
(0.94323833 0.0026221389 0)
(0.84134213 0.031622131 0)
(0.70941038 0.042444641 0)
(0.556448 0.03677237 0)
(0.3871504 0.021154706 0)
(0.20807851 0.006015894 0)
(0.046320471 -0.0011882176 0)
(1.5370987 0.0070873177 -1.2696865e-23)
(1.5326844 0.054506659 0)
(1.520848 0.059723997 -2.3947183e-24)
(1.5091147 0.0072008388 2.0265778e-22)
(1.5116533 -0.084204628 -6.0120154e-23)
(1.5275835 -0.11354729 -5.0638452e-22)
(1.534044 -0.07907395 -1.8330817e-22)
(1.5092106 0.051421408 -1.9444124e-21)
(1.4387036 0.16169007 6.6792266e-22)
(1.3598889 0.17266505 7.6461672e-22)
(1.2944663 0.096560066 0)
(1.2730925 -0.081042374 -1.6853275e-22)
(1.3319225 -0.20832483 0)
(1.4131603 -0.22598035 -1.7862941e-21)
(1.4655218 -0.16422916 0)
(1.4563768 0.0029644978 0)
(1.3487336 0.1932538 0)
(1.2017661 0.26506878 0)
(1.0645943 0.25192689 0)
(0.94112066 0.15524496 0)
(0.85754724 -0.018328421 0)
(0.8686953 -0.15250773 0)
(0.94065916 -0.18159839 0)
(1.0088166 -0.16077213 0)
(1.0583456 -0.12972354 0)
(1.0895199 -0.095649366 0)
(1.0876991 -0.050744366 0)
(1.0373431 -0.0012309818 0)
(0.94175652 0.035849684 0)
(0.81677699 0.052013709 0)
(0.67457082 0.048448796 0)
(0.52194781 0.032099039 0)
(0.3613397 0.013416868 0)
(0.19571943 0.0010493263 0)
(0.048540839 -0.0013190358 0)
(1.5351143 0.0070650713 1.2698388e-23)
(1.5361085 0.054644093 0)
(1.5294932 0.059937255 -1.4766243e-23)
(1.5205052 0.0069099636 1.0087452e-22)
(1.5222509 -0.08557148 -1.1526265e-22)
(1.5356581 -0.11502433 6.2100457e-22)
(1.5415892 -0.080103879 0)
(1.5213507 0.053174292 1.948725e-21)
(1.4589582 0.16547734 1.4921398e-21)
(1.3873243 0.17708577 3.286725e-22)
(1.3256504 0.10047076 0)
(1.3035025 -0.082621286 5.7652533e-22)
(1.3579736 -0.21545897 -1.7973208e-22)
(1.434772 -0.23501225 -3.0053615e-21)
(1.4844644 -0.17016036 -3.5308548e-21)
(1.475391 0.0081943605 0)
(1.3722392 0.20479072 0)
(1.2319637 0.27751336 0)
(1.1002202 0.26379338 0)
(0.98076223 0.16434751 0)
(0.89608093 -0.019088143 0)
(0.90377324 -0.16532917 0)
(0.97583503 -0.19990161 0)
(1.0491647 -0.18051389 0)
(1.1099962 -0.15008289 0)
(1.1568726 -0.11464837 0)
(1.1668901 -0.063129126 0)
(1.1217279 -0.0036966997 0)
(1.028418 0.042603301 0)
(0.90565384 0.064910817 0)
(0.76982645 0.062738404 0)
(0.63179252 0.044055791 0)
(0.49261779 0.021511198 0)
(0.34557282 0.0050889406 0)
(0.19126152 -0.0014905817 0)
(0.051917211 -0.00099278349 0)
(1.5370819 0.054610273 0)
(1.5306792 0.0069282848 6.9732211e-24)
(1.535558 0.060043048 0)
(1.529232 0.006719874 3.4409878e-23)
(1.5300619 -0.086608057 3.8606471e-23)
(1.5411539 -0.11617598 -3.2429837e-22)
(1.5465757 -0.081007132 5.57244e-22)
(1.5313701 0.054643593 1.7010017e-21)
(1.4774194 0.16882014 -1.2397985e-21)
(1.4134716 0.18110073 -1.0763207e-21)
(1.3560592 0.1041724 0)
(1.3334129 -0.0840454 -5.2435475e-22)
(1.3832485 -0.22217915 9.9329143e-22)
(1.4550965 -0.2435841 5.5242407e-22)
(1.5020979 -0.17931107 2.5431621e-21)
(1.4940507 0.0083025561 4.2221437e-21)
(1.3942886 0.21582228 0)
(1.2603246 0.28926557 0)
(1.1338843 0.27482689 0)
(1.0189269 0.17299652 0)
(0.93402466 -0.019407266 0)
(0.93870251 -0.17724177 0)
(1.0105461 -0.21765984 0)
(1.0880751 -0.20059834 0)
(1.1596016 -0.17154063 0)
(1.2202715 -0.13437762 0)
(1.238594 -0.074538627 0)
(1.1943864 -0.0036240946 0)
(1.0985079 0.05406285 0)
(0.9707856 0.084086959 0)
(0.83429347 0.082891202 0)
(0.70851037 0.059615555 0)
(0.59370487 0.03078818 0)
(0.4742552 0.0095869262 0)
(0.3378119 0.00071555484 0)
(0.18920024 -0.0011858012 0)
(0.053586853 -0.00068378155 0)
(1.538996 0.060038954 0)
(1.5356479 0.054387264 0)
(1.5237395 0.0066853338 -6.9729945e-24)
(1.5353201 0.0066363817 -1.4375131e-22)
(1.5351002 -0.087319488 1.0754068e-22)
(1.5440535 -0.11703239 -6.3542921e-23)
(1.5490872 -0.081788829 -1.7866904e-22)
(1.5390454 0.055813498 -1.6387547e-21)
(1.493807 0.17170129 -1.0649798e-21)
(1.4380527 0.18468159 9.0013844e-23)
(1.3853638 0.1076247 -8.0005466e-23)
(1.362512 -0.08532577 3.5946215e-23)
(1.4074861 -0.22848508 5.61736e-24)
(1.4739885 -0.25155343 -5.1440813e-22)
(1.5183883 -0.18781173 0)
(1.5128361 0.0023101293 3.5019421e-21)
(1.4169397 0.22211097 0)
(1.2869141 0.29988333 0)
(1.1654467 0.28517876 0)
(1.0553946 0.18122289 0)
(0.97099034 -0.01934517 0)
(0.97311872 -0.18830695 0)
(1.0446588 -0.23479015 0)
(1.1257144 -0.22077952 0)
(1.2070773 -0.19339496 0)
(1.2789706 -0.15379452 0)
(1.3018362 -0.084223463 0)
(1.2550665 -0.00018731012 0)
(1.1512987 0.071503507 0)
(1.0107354 0.11098123 0)
(0.8659397 0.11078811 0)
(0.74764669 0.08070214 0)
(0.65713651 0.042562202 0)
(0.57121269 0.014626674 0)
(0.4651515 0.0034914915 0)
(0.3320625 0.0016051327 0)
(0.18505695 0.00024778306 0)
(0.0537204 -0.00073843771 0)
(1.5388532 0.0066508977 0)
(1.5398796 0.059921482 0)
(1.5315958 0.053964707 0)
(1.5142964 0.0063380619 -1.3745245e-24)
(1.5374327 -0.087716314 -1.0747269e-22)
(1.5443438 -0.11762096 2.1291772e-22)
(1.5495354 -0.082411615 -1.0631667e-22)
(1.5440599 0.056698234 5.1822329e-22)
(1.5078819 0.1741023 2.3680587e-22)
(1.4608039 0.18780325 1.1299012e-23)
(1.4132282 0.1107961 -2.6258008e-22)
(1.3904781 -0.086451669 2.915334e-22)
(1.4304108 -0.23433759 1.7649726e-21)
(1.4912629 -0.25900633 -9.7729611e-22)
(1.5329818 -0.19576353 -1.0900665e-21)
(1.5300257 -0.000859387 -3.7889233e-21)
(1.4416772 0.22533631 -7.3646003e-21)
(1.3141367 0.30835063 0)
(1.1949405 0.2946721 0)
(1.0900476 0.18886991 0)
(1.0067019 -0.019064896 0)
(1.0067615 -0.19847019 0)
(1.0779547 -0.25125862 0)
(1.1621399 -0.2408325 0)
(1.2521948 -0.2153475 0)
(1.332397 -0.1724488 0)
(1.3564405 -0.091790926 0)
(1.3046499 0.007273076 0)
(1.1886526 0.094837189 0)
(1.0304085 0.14462915 0)
(0.87488726 0.14486773 0)
(0.75709079 0.10650708 0)
(0.68345007 0.056710235 0)
(0.63111461 0.019990763 0)
(0.56234254 0.0063328672 0)
(0.45822549 0.0053466395 0)
(0.32305941 0.0047677234 0)
(0.17800316 0.00055910545 0)
(0.054583964 -0.0010896863 0)
(1.5370673 -0.087784067 0)
(1.5400088 0.0067715821 0)
(1.5386852 0.059700497 0)
(1.5249056 0.053320183 1.4121115e-24)
(1.5024188 0.0058884383 2.648132e-24)
(1.5422398 -0.11797411 2.0264775e-22)
(1.5481708 -0.082834845 -1.5132338e-22)
(1.5460539 0.057278088 1.8676673e-22)
(1.5195139 0.17600351 0)
(1.4814719 0.19044696 1.2303906e-23)
(1.4393205 0.11365862 6.7602791e-23)
(1.4169863 -0.087408773 -1.5337663e-22)
(1.4517422 -0.23967398 0)
(1.5067185 -0.26589407 -1.3607894e-21)
(1.5456013 -0.20335482 3.6179583e-21)
(1.5453194 -0.0049300982 0)
(1.464753 0.22876325 3.8747732e-21)
(1.3439118 0.31709372 2.7390327e-21)
(1.2250787 0.30339933 -9.6925985e-23)
(1.1228753 0.19543786 0)
(1.0409544 -0.017823883 0)
(1.0394647 -0.20771253 0)
(1.1102609 -0.26703701 0)
(1.1973347 -0.26055239 0)
(1.2946682 -0.23696833 0)
(1.3801623 -0.18978113 0)
(1.40247 -0.097664224 0)
(1.3447324 0.0183796 0)
(1.2138365 0.12281252 0)
(1.0405303 0.18195446 0)
(0.87775912 0.18190312 0)
(0.75353186 0.13481279 0)
(0.68395277 0.071589935 0)
(0.65712049 0.024276398 0)
(0.62630069 0.008274486 0)
(0.55714206 0.0093455727 0)
(0.44677914 0.010872572 0)
(0.30984112 0.0060071052 0)
(0.17125596 -0.0014014092 0)
(0.058881264 -0.0017725604 0)
(1.5374153 -0.11806188 -6.6289704e-23)
(1.5341852 -0.087527537 0)
(1.5385782 0.0070182817 -2.2265331e-22)
(1.5352117 0.05935124 2.2403761e-23)
(1.5157058 0.052467368 -1.584954e-22)
(1.488162 0.0053447478 8.3700473e-24)
(1.5440679 -0.083093181 3.5507176e-23)
(1.5451772 0.057577087 2.5715855e-22)
(1.528638 0.17738427 -2.0679031e-22)
(1.4997709 0.19259561 -3.5525329e-22)
(1.4633257 0.11618981 -4.9309777e-23)
(1.4417151 -0.088186053 -5.7017548e-25)
(1.4711968 -0.24443981 6.0956383e-22)
(1.5201207 -0.27212902 -1.650603e-21)
(1.5559263 -0.2105352 0)
(1.5583852 -0.0089758353 -2.6556811e-21)
(1.4860597 0.23186356 1.1801422e-21)
(1.372235 0.3252412 6.0546349e-22)
(1.2581117 0.31602665 4.5257468e-22)
(1.1558616 0.20504949 1.9579732e-22)
(1.0736491 -0.019906205 0)
(1.0711442 -0.21630228 0)
(1.1415993 -0.28218569 0)
(1.2312804 -0.27974619 0)
(1.3342264 -0.25791337 0)
(1.4223357 -0.2056139 0)
(1.4411137 -0.10167141 0)
(1.3779139 0.032598992 0)
(1.2325859 0.15303709 0)
(1.0519041 0.21942527 0)
(0.88561287 0.21850764 0)
(0.75183984 0.16381553 0)
(0.6746889 0.086735312 0)
(0.6598417 0.026490056 0)
(0.66090604 0.0073194638 0)
(0.62698186 0.011810912 0)
(0.54623244 0.017509588 0)
(0.43013327 0.013261861 0)
(0.29669154 0.0028003748 0)
(0.16986889 -0.0055137556 0)
(0.068231612 -0.002554211 0)
(1.5370282 -0.083181278 -1.5402169e-23)
(1.5298735 -0.11790252 -6.2873611e-23)
(1.5287553 -0.086937915 -1.4316433e-22)
(1.5346321 0.0073908676 -7.4439581e-23)
(1.5290964 0.058906787 9.7931435e-24)
(1.5039537 0.051402922 1.5536404e-22)
(1.4716163 0.0047143694 -8.3671686e-24)
(1.5420426 0.057612701 -2.1037364e-22)
(1.5351864 0.17824331 2.2421248e-22)
(1.5154255 0.19424142 2.1303926e-22)
(1.4849608 0.11836983 7.1464676e-23)
(1.4643604 -0.088774929 5.0967454e-23)
(1.4884942 -0.24859108 -5.7843595e-22)
(1.5312634 -0.27763091 0)
(1.5636315 -0.21719881 2.5072267e-21)
(1.568906 -0.013009729 2.8829869e-21)
(1.5053318 0.23460748 1.7231264e-21)
(1.3990354 0.33298567 -3.012036e-21)
(1.2901632 0.32700539 0)
(1.1915089 0.22228553 -4.8952861e-21)
(1.1064583 -0.012770485 4.0006759e-22)
(1.1016788 -0.22665281 0)
(1.1720697 -0.29680532 0)
(1.2638869 -0.29828238 0)
(1.3707415 -0.27791872 0)
(1.4592065 -0.21987763 0)
(1.4744028 -0.10346823 0)
(1.4055356 0.049254506 0)
(1.2495336 0.18383664 0)
(1.0684868 0.25518711 0)
(0.90130768 0.25305339 0)
(0.7591057 0.19207332 0)
(0.66826461 0.10179284 0)
(0.65248389 0.026702697 0)
(0.67356493 0.0023889516 0)
(0.67145844 0.01172199 0)
(0.62077844 0.022852782 0)
(0.53020805 0.020587338 0)
(0.41466925 0.0083929793 0)
(0.29004868 -0.005420089 0)
(0.17722655 -0.010593944 0)
(0.082197264 -0.0029833907 0)
(1.5364868 0.057404359 1.5891752e-23)
(1.5271178 -0.083095391 1.3129413e-23)
(1.5195928 -0.1174716 1.8536999e-22)
(1.5208229 -0.08599469 1.7669226e-22)
(1.5284303 0.0078692585 2.8667943e-22)
(1.5205165 0.058322916 3.6062572e-22)
(1.4896778 0.050126892 0)
(1.4529103 0.0040100099 0)
(1.5391287 0.17859678 -1.0558011e-23)
(1.5281934 0.19538642 0)
(1.5039944 0.1201792 -9.3155542e-23)
(1.4846499 -0.089165829 1.0675136e-22)
(1.5033854 -0.25209327 1.802623e-23)
(1.5399768 -0.28235569 1.3387837e-21)
(1.5685743 -0.22323388 -7.9035074e-22)
(1.5766214 -0.016966472 0)
(1.5222739 0.23698167 -5.5025955e-21)
(1.4241559 0.34038287 0)
(1.3212634 0.33739398 0)
(1.2263491 0.23675619 2.1327934e-21)
(1.1406087 0.0032266233 4.1564699e-21)
(1.1294762 -0.2279725 2.8366292e-22)
(1.2018535 -0.31238562 0)
(1.2951653 -0.31607871 0)
(1.4043914 -0.29662282 0)
(1.490968 -0.23254857 0)
(1.5027766 -0.10361655 0)
(1.4280889 0.066672176 0)
(1.2677142 0.21351942 0)
(1.0903648 0.28843424 0)
(0.92297642 0.2852596 0)
(0.77502472 0.2197404 0)
(0.67018106 0.1167301 0)
(0.64646546 0.025655739 0)
(0.6744483 -0.0064109071 0)
(0.69875979 0.0071354174 0)
(0.67555574 0.024628495 0)
(0.61050334 0.025417065 0)
(0.51752807 0.013110572 0)
(0.40735762 -0.0044709113 0)
(0.29431596 -0.016049194 0)
(0.19426681 -0.015019488 0)
(0.098730518 -0.0027467936 0)
(1.5403709 0.17849638 -8.3204633e-23)
(1.5280427 0.056929589 -1.3547613e-23)
(1.5143507 -0.082834497 -2.191301e-23)
(1.5066631 -0.11674865 6.3968503e-23)
(1.5104799 -0.084711532 -7.1617285e-23)
(1.5199761 0.008478426 5.0054854e-22)
(1.5095599 0.057603816 -2.9550401e-22)
(1.4729417 0.048643454 0)
(1.4322101 0.0032460827 0)
(1.5378861 0.19603047 -1.0705249e-22)
(1.5202664 0.12160016 -1.3133585e-22)
(1.5023504 -0.089361682 -1.5470377e-22)
(1.5156848 -0.25492071 -9.748662e-22)
(1.5461382 -0.28629445 -3.443713e-23)
(1.5711181 -0.22855956 -6.1941504e-22)
(1.58133 -0.020781818 -2.2458147e-21)
(1.5365389 0.23900593 -1.287299e-21)
(1.4474147 0.34735773 2.6301699e-21)
(1.351272 0.34723688 4.1644563e-22)
(1.2604723 0.25073196 0)
(1.1752685 0.015681001 2.6061005e-21)
(1.1575 -0.22599312 -4.84781e-22)
(1.2254534 -0.32208344 -2.9245462e-22)
(1.3254815 -0.33406873 0)
(1.4350641 -0.31393189 0)
(1.5177549 -0.24378384 0)
(1.5267157 -0.10250351 0)
(1.4474866 0.084220849 0)
(1.2877593 0.2413971 0)
(1.1158195 0.31926391 0)
(0.94834781 0.31563539 0)
(0.79670938 0.24695332 0)
(0.68081012 0.13244314 0)
(0.64524267 0.024612412 0)
(0.67186536 -0.018190607 0)
(0.71449951 -0.0025431392 0)
(0.71638787 0.022462464 0)
(0.67497231 0.026920825 0)
(0.60486909 0.015352651 0)
(0.51425594 -0.0046791042 0)