/*--------------------------------*- C++ -*----------------------------------*\
| =========                 |                                                 |
| \\      /  F ield         | OpenFOAM: The Open Source CFD Toolbox           |
|  \\    /   O peration     | Version:  2112                                  |
|   \\  /    A nd           | Website:  www.openfoam.com                      |
|    \\/     M anipulation  |                                                 |
\*---------------------------------------------------------------------------*/
FoamFile
{
    version     2.0;
    format      ascii;
    arch        "LSB;label=32;scalar=64";
    class       volVectorField;
    location    "20";
    object      U;
}
// * * * * * * * * * * * * * * * * * * * * * * * * * * * * * * * * * * * * * //

dimensions      [0 1 -1 0 0 0 0];

internalField   nonuniform List<vector> 
10936
(
(0.071653836 2.5095666e-05 1.4379963e-25)
(0.21323345 0.00056200156 3.9779136e-25)
(0.07264743 -0.00076413664 -1.2855885e-25)
(0.34060084 0.0018884442 0)
(0.20684094 -0.0040646752 0)
(0.099586965 -0.0008178304 3.2175956e-25)
(0.45213106 0.0034079328 7.4906269e-25)
(0.32902297 -0.0063770229 -6.4952664e-26)
(0.24429413 -0.0064244239 9.8456988e-26)
(0.11034761 0.0014354851 3.2566365e-25)
(0.54907532 0.0051268656 1.7613122e-24)
(0.43685451 -0.0083573442 5.8276446e-24)
(0.36499495 -0.01354385 9.3789328e-26)
(0.28161252 0.0058706936 -1.6183274e-25)
(0.061226734 0.0018655164 -3.5179125e-25)
(0.63330627 0.0070601419 -1.3591312e-25)
(0.52996996 -0.010078793 -5.7980805e-25)
(0.47154543 -0.02098154 1.0577463e-24)
(0.41602833 0.0076766317 1.8720201e-25)
(0.2196329 0.013606263 6.4429275e-25)
(0.026509949 -0.0012919273 4.2804044e-25)
(0.70673252 0.0092273337 -2.2793237e-24)
(0.60959798 -0.011729734 -5.1633501e-24)
(0.56638554 -0.028600454 -1.6239429e-24)
(0.5297943 0.0088188013 -3.4826746e-24)
(0.35906443 0.026743126 2.0850478e-25)
(0.13858099 -0.0019690075 2.1876784e-24)
(0.071659348 -0.0024675409 -2.8465593e-25)
(0.77119467 0.011627029 -1.2041699e-24)
(0.67771471 -0.013433548 3.2458818e-24)
(0.65082888 -0.036544506 9.3728499e-25)
(0.63071417 0.0095357886 -6.8307719e-24)
(0.4757271 0.040317176 -1.4900703e-27)
(0.25828612 0.0015117691 -8.2391946e-24)
(0.18334083 -0.015414863 1.5238927e-25)
(0.12027133 -0.0003650268 -8.5137549e-25)
(0.82843064 0.014229829 1.542267e-24)
(0.7365677 -0.015280119 3.8495991e-27)
(0.72632228 -0.04500152 1.7306983e-24)
(0.72218906 0.01021202 8.155543e-24)
(0.57433501 0.054258169 -3.56033e-25)
(0.36351129 0.005738167 -5.278071e-24)
(0.2917563 -0.027566418 -1.1114736e-24)
(0.27251882 -0.0080491521 1.7859825e-24)
(0.12374648 0.00087912268 2.4592375e-25)
(0.88001987 0.016981949 1.5337846e-24)
(0.78840123 -0.017332716 3.7555359e-27)
(0.79442781 -0.054077051 -3.8979051e-25)
(0.80583693 0.011024616 3.4685924e-24)
(0.65852641 0.06909219 -5.4850815e-25)
(0.44889464 0.010621322 1.4824596e-23)
(0.39148693 -0.039684002 2.3338407e-25)
(0.39352421 -0.018746725 5.0848751e-24)
(0.30198698 0.001348084 2.2261402e-25)
(0.10495095 0.0018028388 -3.1682244e-25)
(0.92731562 0.019816422 0)
(0.83525322 -0.019627734 0)
(0.85661173 -0.063773467 -1.1137144e-25)
(0.88258773 0.012145512 -3.8413588e-24)
(0.73051075 0.08532772 -3.9271802e-26)
(0.51522391 0.015997191 -1.0385702e-23)
(0.47758472 -0.051827635 -2.711144e-25)
(0.49992451 -0.030204066 -5.3268843e-25)
(0.43788834 -0.0022731405 -1.0207568e-25)
(0.28912118 0.010259422 -1.7370091e-24)
(0.063736807 0.0020315887 1.3129537e-24)
(0.97139473 0.022661928 0)
(0.87880465 -0.022160584 5.492522e-26)
(0.91408941 -0.074007324 1.4627887e-25)
(0.95310336 0.013737975 0)
(0.79200874 0.10324731 -1.7013021e-24)
(0.56539075 0.021855777 1.9796522e-24)
(0.5493259 -0.064505679 6.7847328e-25)
(0.59490151 -0.042064601 -2.2517835e-24)
(0.55185627 -0.0068330025 -2.5619655e-24)
(0.43496015 0.016403302 1.5316516e-25)
(0.23052464 0.014733412 4.6243024e-25)
(0.030673904 -0.00026053726 -3.4564578e-25)
(1.0130406 0.025452161 -2.1227801e-24)
(0.92029949 -0.024910409 -4.9656686e-24)
(0.96776917 -0.08463664 -6.0162149e-25)
(1.0179424 0.015879087 -1.4045399e-28)
(0.84482158 0.12286685 2.8850967e-25)
(0.60332073 0.02812649 1.0880487e-23)
(0.60868011 -0.078198178 4.5857301e-24)
(0.6797086 -0.054499882 0)
(0.65235416 -0.012064108 2.8739812e-24)
(0.55491747 0.021808893 -4.7156501e-25)
(0.37650171 0.028949201 -1.0382719e-24)
(0.16182111 0.0043118976 -7.4445454e-26)
(0.041894727 -0.0022366873 1.2189028e-25)
(1.052765 0.028132816 -1.9272606e-24)
(0.96054209 -0.02784056 4.9167724e-25)
(1.0182701 -0.095487844 -1.0029808e-26)
(1.0776168 0.018583975 -2.7526312e-24)
(0.89093602 0.1439531 -1.4976942e-25)
(0.63350553 0.034640169 1.3432434e-24)
(0.65881253 -0.093217346 -6.3162811e-24)
(0.75589412 -0.067799379 -3.4452351e-25)
(0.74299385 -0.017634636 -6.8959663e-25)
(0.6580238 0.026878511 -5.6550858e-24)
(0.4959785 0.043920325 5.1269916e-26)
(0.29212539 0.013214131 -3.081711e-25)
(0.15378541 -0.0094861238 -1.1765589e-25)
(0.081668289 -0.0025852967 5.2119898e-25)
(1.090855 0.030662298 2.223059e-24)
(0.9999551 -0.0308934 9.5681746e-24)
(1.0659787 -0.10638169 1.5154857e-25)
(1.1325986 0.021820856 1.8769104e-24)
(0.93234519 0.16608263 1.2450933e-24)
(0.66040128 0.041166809 3.36075e-23)
(0.70307237 -0.10966206 1.0480797e-24)
(0.8252281 -0.082126924 2.1206521e-24)
(0.82569088 -0.023398227 4.8274453e-25)
(0.74886056 0.032320929 3.5270361e-24)
(0.59336387 0.059732956 1.9171642e-25)
(0.39991908 0.023471769 7.2162025e-25)
(0.26970302 -0.012684036 -3.6747264e-24)
(0.20039223 -0.01678082 -9.8098472e-26)
(0.12439693 -0.0012773587 -1.5065136e-24)
(1.1274325 0.033013545 1.9100382e-24)
(1.0386711 -0.034012899 -4.5740107e-25)
(1.1111126 -0.11715491 3.6767414e-24)
(1.1833101 0.02550437 3.2120972e-25)
(0.97079556 0.18873011 1.8220219e-23)
(0.68776078 0.047469035 -1.6234374e-24)
(0.74436706 -0.12742517 9.4717135e-24)
(0.88932374 -0.097450728 -1.445693e-25)
(0.90166095 -0.029199707 4.2770363e-24)
(0.82958242 0.038691867 5.659092e-24)
(0.67265939 0.077130512 -3.9117271e-25)
(0.48238234 0.034877554 5.8852223e-24)
(0.36947001 -0.015071924 5.540224e-24)
(0.31180276 -0.029772471 -5.0781499e-25)
(0.27279817 -0.013597161 -1.8677864e-24)
(0.14448272 0.0008094665 5.1696974e-25)
(1.1625129 0.035171389 -3.9269081e-24)
(1.0766313 -0.037139501 -4.0100744e-24)
(1.1537782 -0.12766658 4.4083162e-24)
(1.2301142 0.029493023 2.5649729e-24)
(1.0076088 0.21135857 -5.0380594e-25)
(0.7181586 0.053353438 -2.0015281e-23)
(0.78484584 -0.14623074 -2.3321279e-23)
(0.94941364 -0.1135738 -7.4859181e-25)
(0.97171921 -0.034848686 -1.8338253e-24)
(0.90132989 0.046404499 -1.3366946e-25)
(0.73667665 0.096774208 -1.736924e-24)
(0.54193744 0.047605122 -7.6765157e-24)
(0.44666772 -0.017071518 5.7099221e-24)
(0.41119791 -0.0428434 -3.1798706e-24)
(0.39050566 -0.028971242 3.6365358e-26)
(0.32849982 -0.0025527884 -1.8465257e-25)
(0.13661413 0.0012690069 -4.7380418e-25)
(1.196053 0.037130028 2.1006273e-24)
(1.1136707 -0.040224303 -3.8553433e-24)
(1.194023 -0.13780488 0)
(1.273314 0.033661537 3.0957438e-24)
(1.043627 0.23349022 -1.3075112e-23)
(0.75286298 0.058699273 -1.0744416e-25)
(0.82583023 -0.16568811 2.4022994e-24)
(1.0063047 -0.13019513 3.5214163e-25)
(1.0364215 -0.040142574 -6.482409e-27)
(0.96498291 0.055678661 -2.366667e-24)
(0.78800982 0.11895104 3.4173511e-25)
(0.58279869 0.061795641 -8.7545393e-24)
(0.50232632 -0.019367694 -7.567681e-24)
(0.49365687 -0.056274533 -1.8403744e-24)
(0.49376105 -0.045207032 3.2005714e-24)
(0.46276949 -0.011303486 4.8680565e-25)
(0.33631384 0.0047369704 -8.824764e-25)
(0.11567637 0.0020420754 0)
(1.2279881 0.038889005 2.5345568e-24)
(1.1495836 -0.043229152 2.0637209e-25)
(1.2318677 -0.1474883 1.2633855e-25)
(1.3131607 0.037904198 -5.7879982e-24)
(1.0792587 0.25474164 1.7106707e-23)
(0.79202358 0.063452508 0)
(0.86791008 -0.1853588 2.9164728e-23)
(1.0604401 -0.14697226 -3.6400568e-25)
(1.0961672 -0.044906865 -3.6364442e-25)
(1.0214807 0.06653257 -1.5973787e-24)
(0.82965042 0.14350071 5.7616854e-24)
(0.61052945 0.077280952 6.6021482e-25)
(0.54120478 -0.022367889 8.9023738e-27)
(0.55934762 -0.070860302 -3.2834663e-26)
(0.58449983 -0.062014656 1.0101423e-24)
(0.57453759 -0.021265211 2.6680264e-24)
(0.48371931 0.0039270585 3.1138516e-24)
(0.31559165 0.01209635 -1.7806105e-25)
(0.082194271 0.0025562174 6.0183732e-25)
(1.2582549 0.040447914 -2.1759588e-24)
(1.1841664 -0.04612295 4.390671e-24)
(1.267329 -0.15666108 7.631146e-27)
(1.3498663 0.042107972 -7.8161693e-24)
(1.1145753 0.2748349 -2.003503e-24)
(0.83502664 0.067609125 -2.4432661e-23)
(0.91112185 -0.20482285 -1.673984e-23)
(1.1119992 -0.16357122 -4.887914e-24)
(1.1512704 -0.049023247 1.791274e-24)
(1.0718723 0.078785317 -8.6690085e-27)
(0.86493675 0.16985455 -4.960677e-24)
(0.63155871 0.093566805 1.4269696e-23)
(0.56991099 -0.026411498 -1.2855756e-23)
(0.61178707 -0.08725965 5.0591886e-24)
(0.66373437 -0.079825904 -9.3660825e-25)
(0.6729654 -0.032019719 3.1981301e-25)
(0.60308819 0.0016265106 3.8254314e-24)
(0.47040031 0.019809297 -3.4154957e-24)
(0.26833486 0.017467833 5.149118e-25)
(0.045211543 0.001680288 -7.6009057e-25)
(1.2868038 0.041830963 -7.7997376e-25)
(1.2172412 -0.048903449 -7.5835188e-26)
(1.3004357 -0.1652894 -1.0002343e-23)
(1.3836209 0.046183917 1.1685956e-23)
(1.1494342 0.29359447 1.854168e-24)
(0.88085878 0.071201149 -2.1781202e-23)
(0.95514158 -0.22372261 1.9153934e-24)
(1.1609983 -0.17970104 3.254734e-25)
(1.2020028 -0.052433063 3.372966e-24)
(1.1172325 0.09210052 -1.3441514e-24)
(0.89708843 0.19717723 6.4673504e-25)
(0.65209168 0.10995658 1.5491155e-23)
(0.5953199 -0.03169791 -1.3928884e-23)
(0.65580188 -0.10572047 -4.4406431e-26)
(0.73344298 -0.099144624 2.393833e-25)
(0.76175529 -0.043499002 -2.1149886e-24)
(0.7066178 -0.0019232475 -2.8821488e-25)
(0.595566 0.026618969 -1.8692276e-24)
(0.4231223 0.032970169 9.7518373e-25)
(0.20292561 0.015588223 -7.0395494e-25)
(0.020815839 -0.00031736183 7.6956404e-25)
(1.3164753 0.043283629 0)
(1.2486682 -0.051587721 -5.8801914e-25)
(1.3312387 -0.17337448 1.1953898e-24)
(1.4146057 0.050066763 -1.3495917e-24)
(1.1835964 0.31093162 -2.4858422e-23)
(0.92838339 0.074286945 2.2435194e-23)
(0.99945218 -0.24178372 1.7289648e-23)
(1.2073716 -0.19513216 1.1328996e-23)
(1.2486161 -0.055134984 -5.9392792e-24)
(1.158547 0.10607039 2.8303745e-24)
(0.92869248 0.22455769 -1.2599311e-24)
(0.67686359 0.12573439 -2.0354312e-23)
(0.6230879 -0.038246048 -1.7868338e-23)
(0.69602365 -0.12606135 1.7741179e-25)
(0.79601729 -0.12018021 4.8376622e-25)
(0.84307367 -0.055815168 7.9242486e-25)
(0.79987373 -0.0060457182 1.1975048e-25)
(0.70250583 0.032807766 2.7781461e-24)
(0.54825128 0.049086748 -7.815604e-25)
(0.34676182 0.033056447 1.6779081e-24)
(0.1478574 0.0057196596 2.4309814e-24)
(0.026538585 -0.0027805258 -8.8701369e-26)
(1.3475315 0.044762266 -2.7761534e-25)
(1.2813709 -0.054113094 7.9585668e-25)
(1.3598421 -0.18083293 2.8549014e-25)
(1.4429894 0.053734984 -1.7253914e-23)
(1.2168234 0.3268191 -2.0644572e-23)
(0.97650942 0.076933742 -2.2021234e-23)
(1.0434689 -0.25881553 1.9185899e-23)
(1.251031 -0.20970086 7.1987001e-24)
(1.2913523 -0.057167433 5.7228487e-25)
(1.1966293 0.12027515 1.2553797e-23)
(0.96139661 0.2511795 -9.742973e-24)
(0.70840733 0.14033473 1.965037e-24)
(0.65669365 -0.045888326 2.2146288e-23)
(0.7359702 -0.14779095 -1.3374422e-24)
(0.85361635 -0.14279498 8.3455437e-26)
(0.91845697 -0.068998553 -1.5428362e-25)
(0.88540594 -0.010478736 -1.0810779e-25)
(0.79677608 0.039191718 2.8087857e-24)
(0.65101574 0.066016042 -4.5823771e-25)
(0.46235352 0.052426368 -2.4895832e-24)
(0.27737562 0.017644408 2.9996432e-26)
(0.13231135 -0.0102439 -2.2610345e-25)
(0.061800903 -0.0032221137 9.0463502e-25)
(1.3774998 0.046107188 -8.4157149e-25)
(1.315902 -0.056680214 -2.0762592e-24)
(1.3884594 -0.18876295 -1.4639799e-24)
(1.468894 0.057377506 1.727586e-27)
(1.2489252 0.34126139 2.3305453e-23)
(1.0242781 0.07916938 -1.4145948e-23)
(1.0866214 -0.27469686 -2.0523326e-23)
(1.2919052 -0.22330486 -9.7468941e-24)
(1.3304507 -0.058593184 -8.828677e-25)
(1.2320923 0.13435232 -1.3951225e-23)
(0.99589413 0.27642727 2.6694809e-23)
(0.74709266 0.15343261 -1.4130782e-24)
(0.69728048 -0.054298771 6.2375431e-23)
(0.77772339 -0.17023293 -2.176657e-26)
(0.90785311 -0.16660076 0)
(0.98895163 -0.082926507 -6.6981995e-25)
(0.96434479 -0.014853489 -1.4326672e-24)
(0.880519 0.046619274 -6.3564252e-26)
(0.73549837 0.084938372 8.9829717e-25)
(0.55043853 0.073807192 -2.383995e-24)
(0.38159156 0.031274443 4.4028886e-24)
(0.24844076 -0.012224948 -3.9433376e-24)
(0.16809769 -0.018871244 2.0280971e-24)
(0.099055782 -0.0021755091 2.041877e-25)
(1.40613 0.04729384 -1.428422e-24)
(1.3495931 -0.059184645 -4.9162612e-27)
(1.4174438 -0.19730261 1.3637748e-23)
(1.4943411 0.060033671 2.1506435e-23)
(1.2797197 0.35436355 2.1718283e-25)
(1.0709034 0.08091724 2.5579957e-23)
(1.128393 -0.2893597 2.412126e-24)
(1.3299621 -0.23589872 1.352271e-23)
(1.3661534 -0.059492728 1.2028137e-24)
(1.2653618 0.14801665 -8.2570463e-24)
(1.0321277 0.29990661 -3.1713325e-24)
(0.79176578 0.16491732 2.4836545e-24)
(0.7441631 -0.063014338 -2.0317418e-24)
(0.82203898 -0.19266022 1.2261824e-23)
(0.95975207 -0.19108027 -3.6362308e-24)
(1.0551851 -0.097353786 2.6936184e-25)
(1.0371515 -0.018775553 1.454752e-25)
(0.9544362 0.055857803 2.621877e-24)
(0.80348878 0.10704258 0)
(0.61321081 0.098276655 3.3418557e-25)
(0.45496572 0.046398013 6.3457845e-24)
(0.34584886 -0.013568425 -4.9131333e-24)
(0.27818295 -0.031463855 -3.0988403e-24)
(0.22403513 -0.017489448 -7.1821485e-25)
(0.12449274 -0.0008884385 -6.6017074e-25)
(1.4331792 0.048319345 1.9195196e-24)
(1.3821268 -0.06160172 -3.3844998e-26)
(1.4449213 -0.20552884 2.8132624e-23)
(1.5197148 0.06132973 2.3778829e-25)
(1.3122031 0.36745984 1.7670695e-23)
(1.1158135 0.082099879 9.7729565e-24)
(1.1683098 -0.30279989 1.3892882e-23)
(1.3652252 -0.2474767 -2.5234198e-24)
(1.3987099 -0.059962286 -1.4818554e-24)
(1.2967155 0.16104648 -1.0053789e-24)
(1.0695834 0.32141972 -1.4231436e-23)
(0.84053581 0.17483274 -2.447975e-24)
(0.79561118 -0.071660435 -2.1609251e-23)
(0.86871094 -0.21443862 -1.3081514e-23)
(1.0098462 -0.21568981 -4.4034367e-24)
(1.1174742 -0.11197475 0)
(1.1040221 -0.021884616 4.3166487e-25)
(1.0189946 0.067407001 -1.1518907e-25)
(0.85663841 0.13302576 2.9984373e-25)
(0.65380035 0.126596 -2.5562785e-25)
(0.49941438 0.06307341 -1.8345054e-23)
(0.41561587 -0.015007795 7.0386655e-24)
(0.37680666 -0.044239784 -4.6756411e-25)
(0.33692201 -0.033178478 -4.2224824e-25)
(0.2740367 -0.012103916 -2.1831798e-24)
(0.13833319 0.00012516554 -1.6148907e-24)
(1.4584169 0.04918157 2.583007e-24)
(1.4131933 -0.063912122 -6.3792653e-24)
(1.4706928 -0.21336778 3.3671193e-25)
(1.5435051 0.062693463 -2.8345035e-23)
(1.3473458 0.38066459 -1.3451635e-25)
(1.162826 0.085624706 -9.4796978e-26)
(1.2060579 -0.31538751 -2.9741024e-23)
(1.3978093 -0.25815761 -3.0994866e-23)
(1.4283818 -0.060092492 -1.863225e-23)
(1.3263292 0.17329009 1.2971736e-24)
(1.1075659 0.34092962 -1.6238163e-24)
(0.89142362 0.18332814 2.3832307e-24)
(0.84957293 -0.080024432 1.5819564e-25)
(0.91697049 -0.23510492 -1.3641043e-23)
(1.0583214 -0.23993668 7.0624668e-24)
(1.1759417 -0.12648085 -3.3227925e-24)
(1.165112 -0.02390409 1.7175751e-24)
(1.0749438 0.081435836 -1.2855823e-24)
(0.89755787 0.1628585 1.9152074e-24)
(0.67767332 0.15858525 2.7225447e-26)
(0.52167405 0.081005866 2.1308938e-24)
(0.45958374 -0.017926061 -6.1263463e-25)
(0.45590588 -0.0582601 -1.6557036e-24)
(0.4403774 -0.049573104 -6.7877147e-25)
(0.39438478 -0.026961077 8.1975116e-25)
(0.3113884 -0.0060485564 -2.9100656e-25)
(0.14205696 0.00073418605 -5.4864628e-25)
(1.481629 0.049878669 2.0159754e-26)
(1.4424978 -0.066098207 -7.8426079e-24)
(1.4945473 -0.22080088 -2.9342876e-23)
(1.5653428 0.063923222 -1.0816063e-25)
(1.3813298 0.39290796 -3.2987493e-23)
(1.2139926 0.091399505 2.0691951e-24)
(1.2432903 -0.32658384 -1.44412e-23)
(1.4281503 -0.2674389 1.9528412e-25)
(1.4554397 -0.059892306 0)
(1.3543148 0.18470856 -1.6188249e-24)
(1.1453937 0.35851754 2.4896456e-24)
(0.94271887 0.19060734 4.2095097e-23)
(0.90415581 -0.087933876 1.0011072e-26)
(0.9658484 -0.25437869 4.6440165e-25)
(1.1051557 -0.26342475 -1.6706705e-24)
(1.2306103 -0.14059706 5.588738e-24)
(1.2206283 -0.024679552 -3.7384898e-24)
(1.1233583 0.097815424 5.4751439e-25)
(0.92969243 0.19581247 0)
(0.69225957 0.19307829 -6.1211794e-25)
(0.53220001 0.09932777 -2.6992644e-24)
(0.48549474 -0.023206705 6.219413e-25)
(0.51581213 -0.07493334 3.342024e-25)
(0.53036929 -0.06695986 1.9504637e-26)
(0.50212262 -0.04276884 0)
(0.4425758 -0.017450826 0)
(0.33202243 -0.0010061861 8.8289348e-25)
(0.13826925 0.0012677932 6.6559063e-25)
(1.502621 0.050410152 7.2786637e-24)
(1.4697668 -0.068144504 -2.3863495e-26)
(1.5162732 -0.22778943 -7.5395339e-26)
(1.5849811 0.064934244 6.7736338e-23)
(1.4139991 0.40415592 -1.5298084e-23)
(1.26409 0.096426067 -6.8865501e-24)
(1.2825673 -0.33633746 2.1496918e-23)
(1.4566567 -0.27792011 2.2991669e-23)
(1.4800961 -0.058901496 4.778446e-23)
(1.3807299 0.19539043 2.1744416e-24)
(1.1825008 0.37430716 1.798078e-23)
(0.99310778 0.1968737 -2.1469556e-23)
(0.95786125 -0.095284382 -2.017462e-23)
(1.0144041 -0.27213827 3.0618067e-23)
(1.1502243 -0.28586775 4.6018003e-25)
(1.2814685 -0.15409941 6.1998919e-24)
(1.2708413 -0.024174854 4.3941344e-25)
(1.1654681 0.1161468 -3.9431447e-25)
(0.95658217 0.23069956 -5.4980077e-24)
(0.70502324 0.22831897 1.2976072e-23)
(0.54206299 0.11686446 3.3942219e-24)
(0.50353379 -0.031223448 -1.0514081e-24)
(0.56146604 -0.095125626 3.0363362e-25)
(0.60644774 -0.086215987 -3.6202056e-24)
(0.59853761 -0.059186314 -7.1271095e-25)
(0.55566302 -0.030155365 -1.0390948e-24)
(0.47380528 -0.0081625536 4.2397334e-25)
(0.33880752 0.0040669188 1.6440055e-24)
(0.12682795 0.0016949379 -2.5534871e-25)
(1.5212206 0.05077716 -8.1766439e-24)
(1.4947526 -0.070037065 1.0595207e-23)
(1.5356678 -0.23429051 1.4742727e-23)
(1.6022043 0.065724994 3.693451e-23)
(1.445045 0.41436796 1.5195392e-23)
(1.3128279 0.10111095 -6.0401048e-25)
(1.3214746 -0.34532024 -6.0272686e-24)
(1.4839193 -0.28964004 2.5352636e-23)
(1.5041137 -0.060386365 3.2752423e-23)
(1.4055163 0.2054526 3.476388e-24)
(1.2184531 0.3883746 -1.9780704e-23)
(1.0416774 0.20222867 2.9171346e-24)
(1.0096382 -0.10201449 1.5091499e-24)
(1.0618448 -0.28837047 2.7285783e-23)
(1.1933683 -0.30708079 1.1447572e-23)
(1.3285118 -0.16682107 -1.9813193e-23)
(1.3160646 -0.022441041 1.5852046e-23)
(1.2024682 0.13587812 -4.0058101e-24)
(0.98117891 0.26620619 -9.1510563e-24)
(0.72153659 0.26254456 -3.5864582e-23)
(0.55939705 0.13255258 1.9441977e-23)
(0.52283454 -0.041837648 1.9249722e-23)
(0.59921808 -0.11883685 -5.8956494e-24)
(0.67107165 -0.10794942 -2.5793329e-25)
(0.68385276 -0.076470502 5.2714804e-25)
(0.65656925 -0.043565606 1.1641027e-25)
(0.59270926 -0.016779284 0)
(0.48981954 0.0026669947 -3.1694163e-25)
(0.3304168 0.0088562524 -1.5583094e-24)
(0.10909825 0.0021020392 -3.6177862e-25)
(1.5372795 0.050982029 -9.2156771e-24)
(1.5172374 -0.071762601 1.1841141e-23)
(1.5525436 -0.24026505 -2.9037847e-23)
(1.6168194 0.066301786 -1.5658619e-25)
(1.474124 0.42350726 2.804499e-23)
(1.3598476 0.10546941 3.6315225e-23)
(1.3596768 -0.35360782 -3.8879522e-24)
(1.5094738 -0.30058999 4.3771093e-25)
(1.5269675 -0.064871151 -5.9956957e-23)
(1.4308249 0.21295176 -4.790309e-24)
(1.2528403 0.40094093 -1.9373392e-23)
(1.0878629 0.20656434 1.0472117e-23)
(1.0588284 -0.10809187 -1.3740581e-24)
(1.1075618 -0.303124 -1.4127065e-23)
(1.234435 -0.32695879 -1.4522421e-23)
(1.3717642 -0.17864846 1.4165641e-23)
(1.3566323 -0.019590065 -9.0025999e-25)
(1.2353908 0.15643863 -7.2102695e-24)
(1.0055237 0.30115131 -1.2045671e-23)
(0.7446981 0.29442318 -3.7395272e-23)
(0.58771014 0.14579597 -2.4446747e-23)
(0.54906195 -0.054465521 -3.1199847e-24)
(0.63467602 -0.14533162 -8.324473e-24)
(0.72770436 -0.13215518 -1.614903e-25)
(0.75939572 -0.094922033 -1.7621326e-24)
(0.74710961 -0.05759204 4.4609728e-25)
(0.69773103 -0.026434194 3.773377e-25)
(0.61469024 -0.0003021313 -1.2604122e-24)
(0.48742666 0.013111896 1.3675224e-24)
(0.30841287 0.01305014 5.3533462e-25)
(0.087629838 0.002277156 -6.4739165e-25)
(1.5506734 0.051028062 4.9438565e-24)
(1.5370346 -0.073308738 2.6002153e-23)
(1.5667325 -0.24567843 -2.8825825e-23)
(1.6286515 0.06667174 1.4118466e-25)
(1.5009152 0.43154509 -1.7584918e-25)
(1.4047658 0.10945366 -2.3211466e-23)
(1.3966476 -0.36106933 -6.2911302e-25)
(1.5330627 -0.31064761 -2.5281435e-23)
(1.5488684 -0.06878396 -5.7943748e-25)
(1.4575769 0.21648095 2.4282955e-23)
(1.2885869 0.41314892 7.2666449e-24)
(1.1313435 0.21009615 -1.0716441e-23)
(1.1050278 -0.11380512 -8.9347843e-24)
(1.1510962 -0.31647606 -2.488423e-23)
(1.273299 -0.34546615 2.1826147e-24)
(1.4112893 -0.1895138 -2.6231819e-24)
(1.3928793 -0.015769128 -2.6939707e-23)
(1.2650522 0.1772991 -1.8553458e-23)
(1.0307575 0.33460964 1.5559258e-23)
(0.77511718 0.32318721 6.8297461e-23)
(0.62667824 0.15653913 -2.8346762e-23)
(0.5840186 -0.068199139 -4.4345432e-23)
(0.67156177 -0.17351197 2.555723e-23)
(0.77950922 -0.15833157 -3.3643329e-24)
(0.82708055 -0.11460805 -2.1744813e-25)
(0.82872595 -0.072368311 6.1038208e-25)
(0.79255959 -0.036944511 2.6095842e-24)
(0.7245111 -0.0046892785 1.5682562e-24)
(0.61706806 0.016114106 -3.9121607e-25)
(0.46783222 0.022470061 -8.0777092e-25)
(0.27728366 0.015421477 -1.4871822e-25)
(0.065993794 0.0018840891 1.825821e-24)
(1.561303 0.050919642 5.3160063e-24)
(1.5539892 -0.074664449 -1.3974665e-23)
(1.5780879 -0.25049949 2.7830586e-23)
(1.6375408 0.066840313 -8.5398169e-23)
(1.5251295 0.4384582 -2.4421993e-23)
(1.4472255 0.11302992 -2.8675556e-23)
(1.4318682 -0.36761586 -2.9849005e-25)
(1.554493 -0.31990171 -2.527714e-23)
(1.5693173 -0.072386268 6.0835825e-25)
(1.4841787 0.22049969 -2.6460455e-23)
(1.3278984 0.42539814 -9.390641e-25)
(1.1753544 0.2170393 1.2883126e-24)
(1.1481483 -0.11997852 9.0160489e-24)
(1.1920191 -0.32866579 -1.0736158e-23)
(1.3098766 -0.3625774 1.7044337e-23)
(1.4471974 -0.19940326 -3.5646279e-23)
(1.4251307 -0.011148401 1.6334995e-24)
(1.2920531 0.19799682 7.6229754e-25)
(1.057314 0.36593335 -2.2729423e-24)
(0.81200427 0.34854125 4.4840221e-23)
(0.67400695 0.16507012 3.405847e-23)
(0.62680137 -0.082131511 2.603327e-23)
(0.7115839 -0.20221468 8.8600319e-24)
(0.82875267 -0.18572553 6.042405e-24)
(0.888753 -0.13535247 -1.1844227e-25)
(0.90296244 -0.08804062 -7.6526006e-25)
(0.87940808 -0.048484088 1.8368579e-25)
(0.82472844 -0.010216962 -1.6557259e-25)
(0.73157597 0.017624629 -1.6896422e-24)
(0.60101472 0.031040169 -1.1296624e-24)
(0.43663505 0.028357013 6.9891741e-25)
(0.24204589 0.014586759 1.3924311e-24)
(0.048570536 0.0010824913 1.14063e-24)
(1.5690932 0.050661626 1.6287916e-26)
(1.5679782 -0.075818666 -2.9794448e-23)
(1.5864854 -0.25469884 3.314285e-26)
(1.6433438 0.066811323 -4.4057272e-23)
(1.5465138 0.44422998 -1.0969788e-23)
(1.4869183 0.11617893 3.3081377e-23)
(1.4648866 -0.37322938 2.4313046e-25)
(1.5735887 -0.32833805 2.4643339e-23)
(1.5880164 -0.075870672 -3.537701e-23)
(1.5096413 0.2241053 -2.9235924e-23)
(1.3649232 0.43672387 2.112014e-25)
(1.2238566 0.22900141 5.6227159e-24)
(1.1898021 -0.12097717 -6.9377232e-25)
(1.2306495 -0.34047178 1.5086082e-23)
(1.3441747 -0.37857592 -3.2694018e-25)
(1.4796665 -0.2083418 2.2959155e-23)
(1.4536982 -0.0059246855 1.9201452e-23)
(1.3168156 0.21813491 -1.2070369e-24)
(1.085158 0.39471234 4.5813645e-24)
(0.85394295 0.37050243 -2.4624225e-23)
(0.72698056 0.17180723 2.507579e-23)
(0.67531792 -0.095614607 2.4542482e-23)
(0.75487203 -0.23042217 -2.7765706e-23)
(0.87672301 -0.21352924 1.003176e-23)
(0.94586198 -0.15683672 -5.2134501e-25)
(0.97124528 -0.10467247 -6.316441e-25)
(0.95998041 -0.06128439 -1.6544131e-25)
(0.91840043 -0.017224986 -1.9831348e-24)
(0.83743227 0.017566177 -1.9795545e-25)
(0.71969355 0.038216962 -2.2551457e-25)
(0.57193494 0.040852738 -1.5239037e-24)
(0.39896033 0.028325686 5.0164945e-25)
(0.21023517 0.011046545 7.3745345e-25)
(0.038212882 5.0055631e-05 0)
(1.5739933 0.050259663 -1.1611313e-23)
(1.5789098 -0.076762559 1.5570238e-23)
(1.5918255 -0.25825052 -1.2721856e-23)
(1.6459341 0.066594763 4.4772474e-23)
(1.5648511 0.44884731 9.7565045e-24)
(1.5235891 0.11888841 3.7936273e-25)
(1.4953284 -0.37791445 -6.1442883e-27)
(1.5901748 -0.33590762 5.3560484e-25)
(1.604673 -0.079239452 3.6482602e-23)
(1.5335446 0.22726591 8.7687045e-26)
(1.400262 0.44725998 7.3160726e-24)
(1.270034 0.23891761 2.7767053e-25)
(1.235484 -0.1164698 -2.6554681e-25)
(1.2656719 -0.34864832 -1.9274881e-24)
(1.3770273 -0.39259686 -4.9210031e-23)
(1.5090163 -0.21642842 -2.2154117e-24)
(1.4788744 -0.00018259189 -1.9719804e-23)
(1.3396498 0.23740323 1.7142845e-24)
(1.1139982 0.42074489 4.0083621e-23)
(0.89934388 0.38928478 2.8057479e-23)
(0.78317819 0.1771789 2.2320231e-24)
(0.72734536 -0.10820131 -2.7528423e-23)
(0.80064397 -0.25741716 1.693032e-23)
(0.92390838 -0.24101912 -6.3556653e-24)
(0.99939025 -0.17869511 -3.1982817e-24)
(1.0346922 -0.12222351 -3.0676935e-25)
(1.0354876 -0.075446601 9.8016305e-25)
(1.0070362 -0.025721237 1.1136307e-24)
(0.93715731 0.01618444 5.6091721e-26)
(0.82902475 0.044461228 4.2700462e-24)
(0.69157279 0.052618878 7.4266711e-25)
(0.53356676 0.042064773 4.0330689e-25)
(0.36341579 0.023214777 -2.2873465e-26)
(0.18656811 0.0057426444 -3.4620826e-25)
(0.035386472 -0.00086099069 -8.038079e-25)
(1.5759758 0.049720341 -7.7985514e-27)
(1.5867222 -0.077486847 1.6116587e-23)
(1.5940329 -0.26112971 1.1916553e-23)
(1.6452045 0.06619486 9.0388743e-23)
(1.5799621 0.45229984 -1.345809e-25)
(1.5570305 0.12114847 -1.9505101e-25)
(1.5228878 -0.38167345 -3.5451615e-23)
(1.6040701 -0.34257555 -2.4318046e-23)
(1.6190159 -0.082449497 3.8402714e-23)
(1.5554876 0.23001002 0)
(1.4337316 0.45696399 -7.856331e-24)
(1.3148109 0.24827722 -1.1719299e-23)
(1.280289 -0.11268706 1.7729933e-25)
(1.3015208 -0.35438337 -1.4037176e-23)
(1.4054698 -0.40781194 9.8031609e-25)
(1.5353596 -0.22203038 -2.7231939e-23)
(1.5008617 0.0055350596 2.1892702e-24)
(1.3608275 0.25569654 4.4342397e-23)
(1.1434472 0.44404054 5.1957305e-25)
(0.94666217 0.40522581 -2.7793343e-23)
(0.84065446 0.18157673 5.5183692e-23)
(0.78100323 -0.11961316 -2.5708513e-23)
(0.84774426 -0.28276508 4.9720054e-23)
(0.97026561 -0.26763116 6.7835974e-25)
(1.0499236 -0.20057568 -3.5964435e-24)
(1.0940647 -0.14055872 5.9186722e-25)
(1.1065923 -0.090843518 -2.1988324e-24)
(1.0908221 -0.035261119 -3.9860915e-26)
(1.0300535 0.014665294 3.8015555e-24)
(0.92774957 0.051616099 -5.1231665e-24)
(0.79569133 0.065517322 7.0006139e-25)
(0.64772663 0.05628486 1.306651e-24)
(0.49480467 0.035786241 2.9469373e-24)
(0.33490861 0.014547168 -1.6383758e-24)
(0.17327779 0.00068799081 -2.1234288e-24)
(0.037975122 -0.0012452793 5.7495786e-26)
(1.5913824 -0.077981745 -1.6526154e-26)
(1.5750367 0.049050841 5.998866e-24)
(1.5930597 -0.26331535 1.1010874e-23)
(1.6410709 0.065628196 7.5320948e-26)
(1.5917041 0.45458101 1.1334637e-25)
(1.58708 0.12295424 2.1806651e-25)
(1.5473168 -0.38450732 2.1533295e-23)
(1.6150898 -0.34832549 2.3068501e-23)
(1.6308049 -0.08546179 -3.9114461e-23)
(1.5750861 0.23237394 7.1405581e-23)
(1.4650283 0.46580226 4.4980535e-25)
(1.3581329 0.25696582 -7.1538364e-25)
(1.323774 -0.10913662 -3.2774149e-25)
(1.3370142 -0.35933749 1.7763387e-23)
(1.4323192 -0.4242898 2.947256e-23)
(1.5590542 -0.23248125 2.972803e-23)
(1.5190501 0.01355074 2.8272211e-23)
(1.3805811 0.27315746 5.1948069e-23)
(1.1731178 0.46476756 1.6783549e-24)
(0.99450516 0.41867859 3.0499017e-23)
(0.89792666 0.18533819 2.408897e-23)
(0.83484713 -0.12970589 2.5195306e-23)
(0.89499675 -0.30624038 1.3843421e-23)
(1.0154734 -0.29299195 9.0433841e-24)
(1.0977671 -0.22217935 0)
(1.1498189 -0.15947312 -5.2538115e-24)
(1.1735067 -0.10713682 7.0826634e-25)
(1.1690309 -0.044956962 8.5251745e-25)
(1.1135856 0.014826673 1.3198179e-24)
(1.0107627 0.062670398 9.3592654e-25)
(0.87723061 0.083116312 -3.0137265e-25)
(0.73520033 0.073946503 -7.0941568e-27)
(0.59899851 0.049837289 4.6464253e-25)
(0.46166522 0.023904683 -2.5223432e-24)
(0.31694323 0.0059534115 -1.9814458e-25)
(0.16842404 -0.0023088895 8.928231e-25)
(0.042504281 -0.0011150283 1.2203616e-25)
(1.5888846 -0.26479372 -1.9955217e-23)
(1.5928854 -0.078239742 -3.3228845e-23)
(1.5711945 0.048258976 -5.1152357e-27)
(1.6334706 0.06490642 -8.8988717e-23)
(1.5999726 0.45568423 4.7126153e-24)
(1.6136134 0.12430282 -4.8910671e-23)
(1.5684196 -0.38641808 4.8890325e-23)
(1.6230548 -0.35315098 4.4646183e-23)
(1.6398302 -0.088241622 -4.0280149e-23)
(1.5919849 0.23438236 4.9243434e-25)
(1.4938543 0.47373769 -1.4489563e-25)
(1.3997327 0.264908 9.7007943e-25)
(1.3655248 -0.10548046 -1.3311223e-23)
(1.3720912 -0.36371294 1.2762158e-24)
(1.4583872 -0.43982729 -8.046902e-25)
(1.5791135 -0.24762288 -3.2015353e-23)
(1.5411236 0.015398908 -1.0022177e-25)
(1.3990849 0.28978305 4.0854077e-24)
(1.2026513 0.48308137 -2.6545482e-23)
(1.0417001 0.42984464 1.6377117e-23)
(0.95393207 0.18871652 -4.7604437e-23)
(0.88781354 -0.13843314 -1.3492671e-24)
(0.94138447 -0.32776127 -5.1890537e-23)
(1.0591142 -0.31689817 -9.5960391e-24)
(1.1430559 -0.24327702 1.4555757e-23)
(1.2021945 -0.17872181 1.3006651e-23)
(1.2361635 -0.12386156 3.3017757e-24)
(1.2407264 -0.05377384 -2.0868778e-24)
(1.1853076 0.018708669 -7.4514967e-25)
(1.0735258 0.080578796 1.5932403e-24)
(0.92911494 0.10899218 -1.5171512e-24)
(0.78680204 0.098519831 -3.9148175e-26)
(0.66683934 0.067889253 -5.9773608e-26)
(0.55664439 0.034690137 -6.779034e-25)
(0.44044726 0.011449909 4.7333163e-24)
(0.30807754 0.00024319506 1.4211577e-24)
(0.1672772 -0.0024916952 4.2249026e-26)
(0.045745981 -0.00078222272 0)
(1.6223684 0.064033478 -4.343505e-23)
(1.581514 -0.26555312 9.1278574e-26)
(1.5912527 -0.078255278 -1.6563843e-23)
(1.5644901 0.047353147 0)
(1.6046992 0.45560541 -3.1195727e-24)
(1.6365416 0.125194 5.133045e-23)
(1.5860487 -0.38740953 1.1104447e-25)
(1.6278026 -0.35704982 -2.0910706e-23)
(1.6459072 -0.090755186 8.095457e-23)
(1.605864 0.2360593 -7.795177e-23)
(1.5199279 0.48072987 8.8570672e-24)
(1.439318 0.27204874 -4.2516989e-23)
(1.4052823 -0.10181478 -1.7948128e-23)
(1.4063539 -0.36744883 -3.1198894e-24)