/*--------------------------------*- C++ -*----------------------------------*\
| =========                 |                                                 |
| \\      /  F ield         | OpenFOAM: The Open Source CFD Toolbox           |
|  \\    /   O peration     | Version:  2112                                  |
|   \\  /    A nd           | Website:  www.openfoam.com                      |
|    \\/     M anipulation  |                                                 |
\*---------------------------------------------------------------------------*/
FoamFile
{
    version     2.0;
    format      ascii;
    arch        "LSB;label=32;scalar=64";
    class       surfaceScalarField;
    location    "0.335";
    object      ddtCorrDdt0(phi);
}
// * * * * * * * * * * * * * * * * * * * * * * * * * * * * * * * * * * * * * //

dimensions      [0 3 -2 0 0 0 0];

oriented        oriented;

internalField   nonuniform List<scalar> 
11923
(
0.00051893395
0.00015609525
0.00036283958
0.0010336618
-0.00087756695
0.00036283946
0.00046603378
0.00056762881
0.00014258041
0.00021048968
0.00015235155
-0.000845303
0.0013113366
0.00077811821
0.001626872
0.00015235126
0.00078156832
0.00092737435
0.00038396313
0.0005409377
0.00023718166
0.00021739029
-6.5037828e-05
0.0016306393
-0.00084907086
-0.0004119407
0.0013393144
0.00092490061
0.00045457157
-6.5038063e-05
0.0012186986
0.0011202494
-0.00010091117
0.0014402264
0.00097307434
-4.8173116e-05
0.00055205961
-9.7487367e-05
0.00020258925
-0.00026762657
0.0013280365
-0.00010933791
0.001610542
-0.00049029249
0.00087216283
-4.4791144e-05
0.001485017
0.00050388624
0.00010510151
-0.00026762683
0.0012832457
0.0015012041
0.0016766504
0.001540509
-0.00066834567
-0.00094832847
0.0024333461
0.00094514776
-0.00044126102
0.00048840746
-0.00038330566
0.00015358656
-0.00042121305
-0.00094272212
0.0022259684
0.00055848182
0.0016147934
6.1856966e-05
0.00059218005
0.00027680204
0.0010794757
0.001353871
4.7146211e-05
-0.0002297194
-0.00042121324
0.0010102614
0.0012157074
0.0021732752
0.0022853768
0.0020589995
-0.0014668185
0.0013452603
-0.0010684574
-0.0018363999
0.0029158764
0.0023641327
0.00077365029
-0.00072650357
0.0003723279
-0.00060204712
8.8656644e-05
-0.00050986981
-0.00093013891
0.0021458467
0.0012431363
0.0015571145
0.00072826246
0.0002225994
-0.00012155827
-0.00029480711
0.0020690534
0.00084682456
0.00032749057
0.0020366427
-0.00035417587
-0.0005133907
-0.00050986998
0.0024733375
0.002800251
0.0028133096
0.0023576077
-0.0021350068
0.0016123194
-0.0017338765
0.00099437284
-0.001289179
0.0041056969
-0.0025201327
0.0033669577
0.00055290914
-0.00090708463
0.00023336622
-0.0007467569
2.524288e-05
-0.00053511298
-0.00072159852
0.0031949367
0.0020786527
0.00135497
0.00145834
-0.0001625251
-0.00052268776
-0.00073950369
-0.00073626995
0.00042195907
0.0036837381
0.0033717713
-4.8139411e-06
-0.00067371855
-0.00072151417
-0.00053511307
0.0036168964
0.0034336231
0.0030871312
-0.0025337697
0.0023712444
0.0017294106
-0.0022520976
0.0011020425
-0.0018415451
0.00063117185
-0.0013674412
-0.0013567497
0.0050404879
0.0020150211
-0.0026965136
0.002691699
0.00031428824
-0.00098800672
9.0279873e-05
-0.00081179426
-3.2722923e-05
-0.00050239048
-0.00076606278
0.0043829601
0.0026675606
0.00085802205
0.0022291096
-0.00080435977
-0.00032526965
-0.0011500555
-0.0012103733
-0.0010531529
0.0023230801
0.0027174074
-0.0021198392
0.0041348594
0.00057185949
-0.00089772689
-0.00084451722
-0.00050239051
0.0015912632
0.0027916973
0.0035255828
0.0031383538
-0.0024963508
0.0016919912
-0.0026981428
0.0023728727
0.0010547444
-0.002204799
0.00058762586
-0.0017979983
0.00029139568
-0.0013445484
0.003914344
-0.0020964934
0.004813901
0.0020383654
-0.002758822
0.0033306807
9.1703166e-05
-0.00098943028
-4.400668e-05
-0.00080051084
-8.1703777e-05
-0.00042068709
-0.00034000215
0.0031317
0.0031855809
0.00024341771
0.0028949366
-0.001441607
-0.0010061524
-0.00038594972
-0.0016171734
-0.0015066026
-0.0012528451
0.00078440382
0.0031299407
0.0016181979
0.0031957029
-0.0028807337
0.0049190981
0.00044994699
-0.0010334369
-0.00088221458
-0.00042068706
0.0039161043
0.0034289987
0.0032419581
-0.0023714502
0.00092984375
-0.0025757306
0.0015695782
-0.0026790616
0.0022931117
0.0004574442
-0.0020746167
0.00017195969
-0.0016785618
-2.1495825e-06
-0.0012506957
0.0047481392
-0.0017322873
0.0049279902
0.0031868104
-0.0026153094
0.0030652554
-0.00010957049
-0.00092386685
-0.0001630176
-0.00071919733
-0.00012058761
-0.0003000999
0.00039456462
0.0035215398
0.0038235635
-0.00019085388
0.0034328123
-0.0019140064
-0.0016458875
-0.0011094841
-0.00032219787
-0.0019026571
-0.0016807112
-0.001360266
0.0010625129
0.0036856262
0.0012488925
0.0036790974
-0.00093096429
0.0041177737
0.002883649
0.00018160614
-0.0010868843
-0.00083978483
-0.00030009983
0.0045840529
0.0036327095
0.0033552369
-0.0022648295
0.00035082413
-0.0024697017
0.00082381424
-0.0024600594
0.0013505749
-0.0021658291
0.0018436313
2.6788415e-05
-0.0019294446
-0.00017371851
-0.0015069927
-0.0002640904
-0.0010961762
0.0049345188
-0.00098422039
0.0046633172
0.0019526845
0.0031335532
-0.0017954424
0.001977048
-0.00029407389
-0.0007928108
-0.00026617036
-0.00057361464
-0.00014855986
-0.00015154033
0.00066961474
0.003914438
0.0043023243
-0.00033372575
0.0036889628
-0.0022380413
-0.002118878
-0.0016362456
-0.00081525455
4.8188964e-05
-0.002103163
-0.0017710828
-0.0013902498
0.001007693
0.0039268254
0.00098688502
0.0036764321
-0.00094095009
0.0028936338
-0.00078087785
0.0039144306
0.0010360981
-0.0010589809
-0.00072217434
-0.00015154026
0.0049221312
0.0039685984
0.0032847017
-0.0021239809
-0.00011405899
-0.0022930841
0.00017420679
-0.0020782293
0.00044198257
-0.0016017274
0.00078647177
-0.001061409
0.0011095978
-0.00035863584
-0.0017445265
-0.00048162466
-0.0012894585
-0.00051202154
-0.00087822883
0.00491371
-0.00028851236
0.0039649434
0.0021127555
0.0036259184
-0.00069039173
0.0017264894
-0.0004639721
-0.00059500906
-0.00035247711
-0.00036969729
-0.0001651286
1.3588044e-05
0.00061182947
0.0043103017
0.0045804278
-0.00013178659
0.0034164883
-0.0024826169
-0.0024071433
-0.0019040226
-0.001159745
-0.00027493724
0.00041920646
-0.0022261512
-0.0018014799
-0.0013422007
0.0010124101
0.0039012999
0.00049634056
0.003468603
-0.00065653608
0.0027692914
0.0024380076
0.0011879108
0.0010699536
-0.00094748585
-0.00053482567
1.3588107e-05
0.0053227117
0.0044486413
0.002534096
-0.0016062264
-0.00087638921
-0.001482938
-0.00092420446
-0.001083399
-0.00082062471
-0.00069725321
-0.00046249444
-0.00025416051
-2.0778384e-05
-1.7475649e-05
0.00043668191
-0.00083884326
-0.0013873073
-0.00081045118
-0.00099102871
-0.00074002516
-0.00060217568
0.00439764
1.124154e-05
0.0034573609
0.0011152736
0.0016540178
0.0024492493
0.0023031845
-2.8415029e-05
0.0010983685
-0.00061673602
-0.00033074991
-0.00042606414
-0.00010876152
-0.00019223297
0.00020582096
0.0019003188
0.0034223929
0.0016195153
0.002829126
-0.00035800348
0.0028920996
-0.0024450699
-0.0023593272
-0.0020076031
-0.0015178776
-0.00071665495
-3.8253786e-05
0.00040826727
-0.0021977587
-0.0017310539
-0.0012189114
0.00077149577
0.003626144
0.0002411676
0.0032161931
-7.1087772e-06
0.0016611265
-0.00022458599
0.0026738351
0.0020785985
0.0010912601
-0.00075681369
-0.00030099426
0.00020582101
0.0035198343
0.0041938887
0.0024711226
0.0011837837
-0.00029684325
-0.0021482257
0.00018061388
-0.0025399412
0.00059444396
-0.0026020488
0.00077586626
-0.0022937466
0.00076230502
-0.0014789624
0.00047904721
-0.00051730205
0.00042488512
-1.6618045e-05
-0.0016265094
-0.00057124793
-0.0012286276
-0.00050242524
-0.00096836593
-0.00025054525
0.0038673118
-2.0473953e-05
0.0032366669
-2.6473771e-05
0.0016876005
0.0026533612
0.0020521246
0.00050686544
0.00058439457
-0.00073558288
-2.1230952e-05
-0.00046280636
0.0001618119
-0.00017867983
0.00038450063
0.00061618676
0.0029036476
0.00055035059
0.0036435381
0.0030873093
-0.0012053533
0.002389137
-0.001923353
-0.0019676117
-0.0019454966
-0.0018261817
-0.0015314412
-0.00099991507
-9.2416597e-05
0.00049024773
-0.001799876
-0.0014707913
-0.00098612787
6.4550277e-05
0.0038027615
-0.000138427
0.0033750937
0.0005497241
0.0011378762
0.0001770122
0.0024763485
0.0022291368
0.0011341189
-0.00048403691
-1.6867676e-05
0.0003845007
0.003453998
0.0037080886
0.001881956
-0.00011866948
0.001480622
-0.0034039746
0.0019434295
-0.0039110426
0.002089963
-0.0040354619
0.0019993976
-0.0038255815
0.0018239987
-0.0033554412
0.0015025953
-0.0025025106
0.0012870805
-0.001379497
0.0011649232
-0.00067467562
-0.002627917
0.00082804246
-0.0017935285
0.00032273856
-0.0012102871
0.00022415966
0.0036643348
0.00035111088
0.0030239823
-0.000612484
0.0017503604
0.0028274595
0.0016166526
0.0011762023
-4.2083511e-05
-0.00079258606
0.00030854905
-0.00047567271
0.00045880476
-0.00016570842
0.00055020887
0.00078007596
0.0026739219
0.00018365023
0.0035244382
0.0026620319
-0.0019500986
0.0018314293
-0.0011472954
-0.001460545
-0.0018210788
-0.0020360632
-0.002001582
-0.0018528456
-0.0012154301
-0.00021457353
0.00050152682
-0.00096548664
-0.00088754876
-0.0005684262
-0.0003723182
0.0040366531
-0.00040412044
0.0034281027
0.001176318
0.00057404203
0.00072111476
0.0021063443
0.0023377674
0.0011342346
-0.00016712328
0.00029309657
0.00055020895
0.0028575721
0.0031521205
0.00071193329
-0.00077202976
0.0029326074
-0.0040799032
0.0031153785
-0.0045759253
0.0029328567
-0.0047539378
0.0026032937
-0.0046393582
0.0022675407
-0.0042691225
0.0019756351
-0.0038284795
0.0018243677
-0.0030397964
0.001779881
-0.0019944538
0.0017252124
-0.0012236857
-0.0032955914
0.0023301054
-0.0023887796
0.0015012316
-0.0014511021
0.00088267623
0.0036325322
0.00085310343
0.0025749986
-0.0012014227
0.0017754649
0.0029594478
0.0011363447
0.0017018227
-0.00056758833
-0.00084662067
0.00067949737
-0.00043342015
0.0007265165
-0.00013208467
0.0006822934
0.0013216235
0.0015359484
0.00061096824
0.002541152
0.0020335572
-0.0020424889
0.0012704601
-0.00036298419
-0.00096452431
-0.0016430677
-0.002150643
-0.0023718165
-0.002293487
-0.0020041118
-0.0012599155
-0.00026924143
0.00047813707
-5.8674733e-05
5.0129136e-05
3.6055666e-05
0.00092904395
0.0027034881
-0.00052699109
0.0031019888
0.0016784373
9.7027316e-05
0.0013019039
0.0016575434
0.0024382486
0.0011108489
0.00024607754
0.00059443207
0.00068229353
0.0021469168
0.0008384083
0.0017027435
-8.9316492e-06
-0.00089407275
0.0036893354
-0.0040523201
0.0036662274
-0.0046307527
0.0034489591
-0.0050920279
0.0031144032
-0.0052650465
0.0026842788
-0.0050560943
0.0023146552
-0.0046081403
0.0019696607
-0.0039737707
0.0019312894
-0.0031912036
0.0020548044
-0.0023240454
0.0020664775
-0.0015883406
-0.003357221
0.0032985462
-0.0024451934
0.0024953226
-0.0015650027
0.0016010585
0.0017674522
0.002176497
0.0012732959
0.0018286924
-0.0016999176
0.001796945
0.0029308393
0.00073833098
0.0020289797
-0.00091813092
-0.00082940058
0.0010754781
-0.0003541087
0.00094854064
-7.1950712e-05
0.00075424416
0.0012384089
0.00090850823
0.00030220485
0.0014005386
0.0012294777
-0.0016731514
0.00077907906
0.00033211437
-0.0003860921
-0.0011817927
-0.001977624
-0.0025807671
-0.0027414387
-0.0026384797
-0.0020424816
-0.0011363995
-0.00025756796
0.00044063903
0.00085335229
0.00093031951
0.000771658
0.00078308831
0.00098436386
0.00023388544
0.0019426115
-0.00063339975
0.0024620918
0.0020072636
-0.00021031879
0.0017304752
0.0012003638
0.0024688062
0.0010891326
0.00072136965
0.00087659015
0.00075424428
-0.00039767708
0.0013061852
0.001085293
0.0010028614
-0.00044367388
-0.00082971044
0.0038361112
-0.0035039971
0.0037359226
-0.0041220146
0.0035276838
-0.0047094762
0.003223636
-0.0052012592
0.0028863598
-0.0054671256
0.0025972264
-0.0053386634
0.0022293543
-0.0048678326
0.0020765803
-0.0041190611
0.0021773134
-0.0033137126
0.0022551309
-0.0025126989
0.0022317448
-0.0017911059
-0.0028354565
0.0036888083
-0.0021436421
0.0030739613
-0.0013745387
0.0021461965
0.0012182492
0.0013092118
0.0013424051
0.0011196864
-0.0020199083
0.0018095895
0.002542769
0.00044889799
0.0021759862
-0.0010868537
-0.00068925119
0.0014106208
-0.00023356648
0.0011101566
-7.4901445e-06
0.00076173455
0.00086251126
0.0001514253
0.00093386739
-0.00020456536
0.0012074267
-0.0014112713
0.00058156046
0.0010006548
0.00023192622
-0.00059432987
-0.0014858397
-0.0023148994
-0.0028698992
-0.0031093091
-0.0027912525
-0.0019417481
-0.001058582
-0.00028095425
0.0003848802
0.0015451659
0.0016994224
0.0014569453
0.00057998911
0.00063825989
9.8383114e-05
0.0012108286
-0.00052260273
0.0016422889
0.0021545617
-0.00034497219
0.0018218243
0.00072094453
0.0022707223
0.0010677079
0.0011770544
0.0011026666
0.00076173469
-0.00054875995
0.00073141431
0.00072930191
0.00065866647
0.0012740526
-0.00069249252
0.0034910978
-0.002490443
0.0033471302
-0.0031152031
0.0032127702
-0.0038070987
0.0030726956
-0.0045585339
0.0028225202
-0.0051374182
0.002597827
-0.0054677249
0.0023336928
-0.0054430009
0.0022158483
-0.0050071003
0.0022762413
-0.0042179893
0.0023106169
-0.0033691989
0.0022784671
-0.0025594214
0.0021805405
-0.0017956604
-0.0019378375
0.003483003
-0.0014268264
0.0031262485
-0.00090613773
0.0023630829
0.000736643
0.0006882258
0.0011010636
0.0005412251
-0.0020627538
0.0017177815
0.0018220081
0.00020796857
0.0021200193
-0.0010523114
-0.00041395156
0.0015910059
-6.6182088e-05
0.0011688487
6.8190044e-05
0.0006935449
0.00051725219
0.00021416193
-7.2289975e-05
0.00080159174
0.0010412293
-0.00038256317
0.00010673422
0.00034873661
0.0015532604
0.00085668783
9.7567901e-05
-0.00073440277
-0.0017360141
-0.0025395917
-0.0031340322
-0.0032271527
-0.0027308592
-0.0019073727
-0.0010907321
-0.00037888108
0.00032435873
0.0020561763
0.0022201105
0.0019491313
0.00021642397
0.00052021886
-0.00013792461
0.00082615033
-0.00052645972
0.0010676847
0.0020661488
-0.00034836723
0.0015208776
0.00030113048
0.0017288461
0.0010138373
0.0015248239
0.0012370388
0.00069354502
0.00044496216
0.0004305859
0.00041902828
-0.00071625572
0.00082195924
-0.00047322215
0.0028342146
-0.001280954
0.0027273135
-0.0018706245
0.002634865
-0.0025372952
0.0025981421
-0.003332543
0.0025086135
-0.0042446263
0.0023324457
-0.0048720365
0.0022049199
-0.0053389516
0.0020562665
-0.0052834188
0.0020756696
-0.0048065287
0.0021278305
-0.0040352032
0.0020910538
-0.0031817859
0.0019861407
-0.0023650218
0.0019105055
-0.0015861469
-0.00082786246
0.0028840386
-0.00051509587
0.0027352061
-0.00026981338
0.0022189445
0.00038229414
0.00029969041
0.00088680563
0.0001808788
-0.0017353629
0.0013869955
0.0011879361
-6.5167377e-06
0.0018745085
-0.00086067116
-3.4715817e-05
0.0015595397
0.00013693876
0.0011001002
0.00014574042
0.00054780509
4.8097691e-05
0.00039686425
0.00012092723
0.00030965843
0.00064116734
-0.00022213887
0.00010570316
0.00016794487
0.0020063521
0.00144636
0.00076424117
6.0847231e-05
-0.00082393009
-0.0019121814
-0.0026671171
-0.0032826852
-0.0032077492
-0.0026786983
-0.0019441497
-0.0011956455
-0.0004545164
0.00028836154
0.0023689425
0.0024653926
0.0021842286
-0.0001599347
0.00054222884
-0.00042753637
0.0007272268
-0.00066656638
0.00084744512
0.0017281382
-0.00034114257
0.0011567767
3.115931e-05
0.0011502599
0.00086746688
0.0016964785
0.0012458407
0.00054780522
0.00016902478
0.00017472524
0.00014972365
0.00040576575
-0.00030006303
0.00030006303
-0.00013211871
0.0019592702
4.7082261e-05
0.001916464
-0.00047010281
0.0019131308
-0.0011488874
0.0019111331
-0.0018502836
0.0019728133
-0.002796742
0.0018147405
-0.0037269215
0.001787368
-0.004454485
0.00146603
-0.004748715
0.0014287921
-0.0046365411
0.0015033728
-0.004182071
0.0015526031
-0.0034967528
0.0015332002
-0.0027288459
0.0015052412
-0.0019597578
0.0015243335
-0.001235972
0.00033522785
0.0020337146
0.00043492185
0.0020304707
0.00040720129
0.0017770274
0.0001146924
6.0660324e-05
0.00084454597
2.8989949e-06
-0.0012885083
0.00094736563
0.00087570523
-0.00013824838
0.0015109118
-0.00064344492
0.00038454073
0.0013119379
0.00034652677
0.00089931413
0.00021220487
0.0003356009
-4.2606171e-05
0.0002116307
0.00013211871
4.2606171e-05
-0.0002116307
0.00036135415
0.002294498
0.0019635465
0.0014430284
0.00076224574
0.00012252925
-0.0009820024
-0.0019395543
-0.0029884553
-0.0033199229
-0.0031331683
-0.0026294681
-0.0019635529
-0.0012236049
-0.00043542435
0.00027493976
0.0024686362
0.0024376718
0.002161568
-0.00036135415
0.00047604639
-0.00047604639
0.00053670655
-0.00053670655
0.00053960539
0.0012529423
-0.00030557664
0.00093854374
-6.2838603e-05
0.00080029534
0.00060949732
0.0016584646
0.0011115191
0.00033560101
0.0010476408
0.0012468575
0.0009997359
0.00096381155
0.00104073
0.00040230048
0.0011216049
-0.00035935661
0.0011448956
-0.0010223647
0.0011133393
-0.0020953414
0.0011178301
-0.0030573847
0.00069980998
-0.0036882655
0.00057129301
-0.0038912159
0.00063380189
-0.0037669701
0.00074730155
-0.0033767696
0.00082683843
-0.0027903915
0.00089740221
-0.0021210074
0.0010206909
-0.0014561155
0.0011336316
-0.00085869183
0.0013240514
0.0011445849
0.0012417048
0.0011959672
0.0010272723
0.0011342961
0.00053960533
-0.00092702644
0.00062144969
0.00047676667
-0.00012673114
0.0010531651
-0.00044366776
0.00076565296
0.000892812
0.00052914613
0.00058237333
0.00025693204
7.8669784e-05
0.002371692
0.0022465934
0.0020045417
0.0015239054
0.00078553853
9.097377e-05
-0.00097751219
-0.0023575752
-0.0031169726
-0.0032574139
-0.0030196685
-0.0025499313
-0.0018929895
-0.0011003167
-0.00032248391
0.00019447326
0.0023862895
0.0022232393
0.0018999489
0.00080071929
-0.00017926969
0.00047676663
0.00035003543
0.00035705152
0.0014219581
0.00083930538
7.8669909e-05
0.00026267382
0.0021090187
0.00018446901
0.0020621251
0.0001861798
0.0018183635
0.00030195534
0.0012219526
0.00041440132
0.00037113929
0.0003668027
-0.00027582854
0.00038486255
-0.0013623756
3.7292277e-05
-0.0023948684
-0.00028037395
-0.002836599
-0.00029007811
-0.0029673357
-0.00015938674
-0.0028602816
-2.1177352e-05
-0.002528754
0.00015287441
-0.002045864
0.00039116551
-0.0014914823
0.00063476458
-0.00095724854
0.00072516121
-0.00053068797
0.0020392815
0.00034700866
0.0018275772
0.00039566277
0.0014725052
0.00042744426
-0.00035003543
0.00017076567
0.00056977176
-0.0002127203
0.0010474772
0.00037448132
0.00066877447
0.00017053128
0.00029728497
-0.00021861425
0.002301955
0.0022934875
0.0022483047
0.0021203186
0.0016363535
0.00073794124
0.00010903325
-0.0013250839
-0.0026752425
-0.003126677
-0.0031267224
-0.002881459
-0.0023758796
-0.0016546986
-0.00085671781
-0.00023208733
3.9083815e-05
0.0021745855
0.0018681676
0.0014749212
0.00017076563
-4.1954662e-05
0.0010432557
0.00046781629
-0.00021861414
-0.0005029012
0.0028048575
-0.00057699171
0.0028704802
-0.00067207713
0.002920383
-0.00068133571
0.0028016564
-0.00048594596
0.0021223016
-0.00019956766
0.00093750937
-9.4853961e-05
0.00020388586
-0.00041565489
-0.00090943059
-0.0010311928
-0.0016440505
-0.0012010217
-0.0019256552
-0.0010591539
-0.0020675681
-0.00087090338
-0.0020105552
-0.00061571044
-0.0017601689
-0.00027635297
-0.0013783455
8.8607844e-05
-0.00094532551
0.00032431003
-0.00055639727
0.00027173016
-0.00023264636
0.0026433838
-0.00046879693
0.0022869856
-0.00041881677
0.0017699705
-0.00029504833
-4.1954685e-05
0.0012094564
-0.00016620005
0.00067442072
-0.00020660383
0.00026303846
-0.00048165144
0.0021404821
0.0022278651
0.0021984024
0.0022390467
0.00231571
0.0019227335
0.00084265504
-0.00021176941
-0.0019406236
-0.0028450723
-0.0029848091
-0.0029384714
-0.0026262657
-0.002036522
-0.0012897378
-0.0006210156
-0.00028466714
-0.00027460106
0.0018181882
0.0013511533
0.0009144078
0.00050822052
5.6434582e-05
-0.00048165132
-0.0013185328
0.003459017
-0.0013272199
0.003555087
-0.0013973806
0.0035957846
-0.0015056848
0.0037447331
-0.0015936162
0.0039093276
-0.0014622676
0.003385001
-0.0011904957
0.0020331486
-0.00086929316
0.00065752132
-0.001436409
-0.00050421568
-0.001930326
-0.00091474598
-0.0018912508
-0.0010935574
-0.0016865697
-0.0012519009
-0.0013697732
-0.0012564919
-0.00094345747
-0.0010930641
-0.00047290467
-0.00081683284
-0.0001182832
-0.00050273223
-8.2488299e-05
-0.00020217888
-0.00027460112
0.0031391095
-0.0013209193
0.0025752533
-0.0012240985
0.0018929955
-0.00097858658
0.0012219077
-0.00071368642
0.0006826849
-0.00062624971
0.00022117606
-0.00070282621
0.001820576
0.0021317962
0.0021577053
0.0020900988
0.0021511162
0.0024470599
0.0021945055
0.0011638554
-0.00077888799
-0.002434542
-0.0028059969
-0.0027801272
-0.0026216741
-0.0021999495
-0.001565969
-0.00093511628
-0.0005852206
-0.00047677996
0.0012543334
0.0006688965
0.00024332077
-3.1001713e-05
-0.00040507368
-0.00070282611
-0.0021985733
0.0040191519
-0.0021830292
0.0043148283
-0.0021853588
0.0043430666
-0.0021618028
0.0042519031
-0.0021588075
0.0043099238
-0.0020737437
0.0045208019
-0.0019642037
0.0041587062
-0.0017236438
0.0028874966
-0.001739642
0.00096075329
-0.0022536947
-0.0001808462
-0.0024477435
-0.00035825183
-0.0022544136
-0.00052571233
-0.00194712
-0.00067455325
-0.0014956758
-0.00070427316
-0.00096735423
-0.00059861438
-0.0005436257
-0.00039149042
-0.0004282656
-0.00015695508
-0.00047678005
0.0033950125
-0.0021406768
0.002600825
-0.0019319268
0.0018053312
-0.0015620092
0.0011115222
-0.001142523
0.00055103427
-0.00095610701
0.00013460872
-0.00083743324
0.0011964383
0.0018361215
0.002129468
0.0021812624
0.0020930948
0.0022361802
0.0025565989
0.0024350628
0.0011478544
-0.0012929419
-0.0026285901
-0.0026126657
-0.0024728325
-0.0021702292
-0.0016716276
-0.0011422404
-0.00081975613
-0.00063373504
0.00046014742
-0.00012659616
-0.00045048741
-0.00059148901
-0.00082149846
-0.00083743318
-0.0029636921
0.0041601329
-0.003028359
0.0048644831
-0.0030485094
0.0051779796
-0.0030030772
0.0051843406
-0.0029461939
0.0050392874
-0.002647239
0.004883416
-0.002294279
0.0048508745
-0.0021078356
0.0045428968
-0.0019678865
0.0031157417
-0.0023197148
0.0010267752
-0.0027926293
0.00016404166
-0.0026088015
-3.8624142e-06
-0.0022803728
-0.0001924587
-0.0018473308
-0.00032289773
-0.001331626
-0.00034000126
-0.00089584543
-0.00024639485
-0.00073130336
-8.8452956e-05
-0.00063373518
0.0032631706
-0.0028030211
0.0023425271
-0.0024691216
0.0015161805
-0.0019666667
0.00084480419
-0.0014362922
0.00036312159
-0.0011846192
4.1941022e-05
-0.00087937275
0.00029947741
0.0011317725
0.0018159719
0.0021749008
0.0022381459
0.0023920486
0.002589138
0.0027430399
0.0025750105
0.0007960264
-0.0017658547
-0.0024447604
-0.0022842356
-0.0020397899
-0.001654524
-0.001235847
-0.00097769834
-0.00072218804
-0.00046049493
-0.0009529418
-0.001121863
-0.001073171
-0.0011426784
-0.0008793727
-0.0034108888
0.0037103684
-0.0035361236
0.0046678981
-0.0035935311
0.0054095042
-0.0035981388
0.0057730394
-0.003492941
0.005731085
-0.0032410889
0.0056331343
-0.0027654865
0.0053546221
-0.0024141497
0.0051571894
-0.0021254132
0.0047004258
-0.0021570501
0.0029530796
-0.0027359853
0.00097013352
-0.002881634
0.00043687567
-0.0024981003
0.00021386574
-0.0020533025
1.3513093e-05
-0.0015647649
-8.9758875e-05
-0.001149543
-8.6304008e-05
-0.00095860235
-1.9096283e-05
-0.00072218824
0.002708889
-0.0031693821
0.0017780402
-0.0027309806
0.0010057652
-0.002127627
0.00049892198
-0.001572092
0.00014610706
-0.0012887845
-5.015484e-05
-0.00082921615
-0.0007020011
0.00017424322
0.0010743652
0.0018113638
0.0022800979
0.0024899966
0.0028676486
0.0029404731
0.0030317766
0.0025433753
0.00021709349
-0.0019115013
-0.0020612252
-0.0018394372
-0.0015512521
-0.0012393023
-0.0010449065
-0.00074128444
-0.0013913429
-0.0017252163
-0.0016287056
-0.0014259854
-0.0013389397
-0.00082921622
-0.0034592266
0.0027572272
-0.0035837904
0.0037580352
-0.0036146951
0.0046890612
-0.0036741022
0.0054854658
-0.0037201325
0.0060002294
-0.0034942471
0.0059842426
-0.0031030844
0.0059707326
-0.0027307005
0.0056711747
-0.0022955573
0.005327336
-0.0019977284
0.004541106
-0.0022428648
0.0024599603
-0.0028539212
0.00094242137
-0.0026279275
0.00056670303
-0.0021541957
0.00031475855
-0.001691206
0.00013995383
-0.0013053154
6.6012913e-05
-0.0010925614
4.7654529e-05
-0.00074128469
0.0017669338
-0.0031582753
0.0009635914
-0.0026888065
0.00047756863
-0.0021062732
0.00015767573
-0.0015836604
-6.2945401e-05
-0.0012759937
-0.00012812508
-0.0007010897
-0.0016922941
-0.00082656466
0.0001433384
0.0010149576
0.0017653329
0.002505983
0.0028811588
0.0032400321
0.0033756173
0.0033296073
0.0022982405
-0.00039396177
-0.0016855068
-0.0015874931
-0.0013764479
-0.001165362
-0.0010265487
-0.0006936301
-0.0021946851
-0.0022112388
-0.0019485982
-0.0016466063
-0.0014041191
-0.00070108977
-0.0031568181
0.0014645253
-0.003294486
0.0024679228
-0.003415168
0.0035585075
-0.0034923844
0.0045073423
-0.003485808
0.005251141
-0.003177997
0.0056839805
-0.0030012919
0.0058824519
-0.0026561831
0.0058962169
-0.0022447085
0.0056203278
-0.00183047
0.0051600788
-0.0016810098
0.0039792509
-0.002251877
0.0018579155
-0.0026121128
0.00092660576
-0.0021846834
0.00059718969
-0.0017267379
0.00035028954
-0.0013678388
0.00020247649
-0.0011311604
0.00010461124
-0.0006936304
0.00071436136
-0.0029090454
0.00028360525
-0.0024948428
1.2903506e-05
-0.0019615005
-0.00015898112
-0.0014876244
-0.00024993923
-0.0011541794
-0.00018648991
-0.00051459841
-0.002442458
-0.0018299621
-0.00094724679
6.6121804e-05
0.0010215339
0.0020731445
0.0026826891
0.0032262683
0.0036515075
0.0037898572
0.0034790685
0.0017273733
-0.00075419773
-0.001258078
-0.0011295486
-0.0010175498
-0.00092868414
-0.00058901912
-0.0026254413
-0.0024819403
-0.0021204824
-0.0017375643
-0.0013406697
-0.00051459855
-0.0028699026
0.00042744541
-0.0029978177
0.0011678569
-0.0030962793
0.0021490341
-0.0031531048
0.0032192276
-0.0029510895
0.0039726241
-0.0026157995
0.0046889451
-0.0025717514
0.005254442
-0.0022697023
0.0054959722
-0.0018763499
0.0055278589
-0.0015023662
0.0052922245
-0.0012179578
0.0046970267
-0.001377887
0.0031052598
-0.0021523156
0.0013981168
-0.0021063013
0.00084822211
-0.0016720179
0.00054246842
-0.0013373129
0.00031976266
-0.0010776622
0.00014897755
-0.00058901944
-2.0468295e-05
-0.0026049721
-0.00028958979
-0.0021923491
-0.00041157733
-0.0017089039
-0.0004499256
-0.0012876384
-0.00040679494
-0.00093387473
-0.00022414559
-0.00029045215
-0.0028903721
-0.0025703736
-0.0019284239
-0.001004072
0.00026813764
0.0013568248
0.002117194
0.0029847392
0.003619621
0.0040254916
0.0040742662
0.0033191394
0.00095294415
-0.00070818446
-0.00082379592
-0.00079484487
-0.00075789974
-0.00044004184
-0.0028945631
-0.0026039275
-0.0021588303
-0.0016944339
-0.0011580208
-0.00029045224
-0.0026548545
-0.00023551734
-0.0028220324
0.00025165965
-0.0026716928
0.00074327068
-0.0022685481
0.0012644778
-0.0017481697
0.0020163082
-0.0015951725
0.0029519979
-0.0016156466
0.0037328414
-0.0013749718
0.0043597118
-0.0011505755
0.0047701971
-0.00090301668
0.0049285088
-0.00065100407
0.0047252704
-0.00059277801
0.0039119168
-0.0012059629
0.0021589057
-0.0018219845
0.0011137987
-0.0015401661
0.00071636941
-0.001212512
0.00041766676
-0.00093874005
0.00018083986
-0.00044004213
-0.00060737825
-0.0022871837
-0.00076995125
-0.0018339744
-0.00079755904
-0.0013612701
-0.00071225514
-0.00098217873
-0.0005314044
-0.00062661667
-0.0002399589
-5.0493367e-05
-0.0032622339
-0.0030575511
-0.0024200347
-0.0015252788
-0.00048369244
0.00042113572
0.0013363516
0.0023578692
0.0032091349
0.003867179
0.0042775039
0.0041324923
0.0027059541
0.00033692155
-0.00042636727
-0.00049614267
-0.00052107336
-0.00025920219
-0.003057136
-0.0026315345
-0.0020735262
-0.0015135838
-0.00086657598
-5.0493357e-05
-0.0019835836
-0.0012786504
-0.0017817412
-0.0012758095
-0.0013657681
-0.0010542647
-0.00093921605
-0.0005860607
-0.00041831986
-6.5371986e-05
-0.00017721019
0.00059834557
-0.00028476507
0.0016211164
-0.00022598967
0.0025838588
-0.00019380779
0.0034029425
-9.3003191e-05
0.0039601818
5.358151e-05
0.0042239219
0.00016513308
0.0039673585
-0.0001520805
0.0028580335
-0.0011043471
0.0014412676
-0.0012760339
0.00084966618
-0.00098988867
0.00049374596
-0.00072573908
0.00020466553
-0.00025920239
-0.0012327728
-0.0018243621
-0.0012123096
-0.001419223
-0.001111591
-0.00096193377
-0.00092536074
-0.00058822287
-0.00063217484
-0.00023440175
-0.00028441429
0.00023391996
-0.0032163575
-0.0030603931
-0.0026415792
-0.0019934819
-0.001004381
-0.00024258207
0.00031358076
0.0013951266
0.0023900501
0.003309938
0.0040137624
0.0043890548
0.0038152783
0.0017536867
0.00016523399
-0.00014022237
-0.00023199311
-5.453688e-05
-0.0030366728
-0.002530815
-0.0018872955
-0.0012203984
-0.00051881636
0.00023391996
0.00014961244
-0.0033659698
0.00089709115
-0.0039574835
0.0014599524
-0.0041015298
0.0017134622
-0.0037069427
0.0014079289
-0.0024123105
0.00077873242
-0.0010213163
0.00066287304
-0.00034929376
0.00073732312
0.00065780268
0.00069894945
0.0016911
0.00074123823
0.002568699
0.00082592015
0.0031878414
0.00091254014
0.003476514
0.00078018223
0.0030350955
-5.8904931e-06
0.0017595767
-0.00076354376
0.0009287775
-0.00068108929
0.000540867
-0.00043718753
0.00020519449
-5.4536926e-05
-0.0025777444
-0.00045892782
-0.0018652405
-0.00066557307
-0.0014273989
-0.00045989473
-0.0010681623
-0.00015223505
-0.00067188167
0.00015306519
-0.00025510049
0.00048901952
-0.0024281332
-0.0024688803
-0.002497533
-0.0023880688
-0.002299014
-0.0016335777
-0.00035844279
0.00038802955
0.0013567517
0.0024323373
0.0033946182
0.0041003812
0.0042566965
0.0030292053
0.00099603306
0.00024768836
0.00010367948
0.00015065736
-0.0023241694
-0.0020929731
-0.0015280581
-0.00082411755
-0.00010203562
0.00048901952
0.0028625711
-0.0052907034
0.003402558
-0.0058714366
0.0035946075
-0.0060921394
0.0035369697
-0.0059250394
0.0032690082
-0.0055680251
0.0028146588
-0.00444824
0.0023041925
-0.0026626378
0.0018317619
-0.0014437336
0.0016794527
-0.00032270165
0.0015888046
0.00084353207
0.0015877959
0.0018068217
0.0016276684
0.0024727124
0.0015857269
0.0026709695
0.0010105177
0.0020186876
-4.0136609e-05
0.0010361697
-0.00031800684
0.00056569533
-0.00011776681
0.00022144652
0.00015065746
-0.0042782555
0.0019540866
-0.0030808149
0.00098784313
-0.0019198361
0.00039177985
-0.0011790184
0.00035490231
-0.00068763488
0.0005855997
-0.00024192301
0.00073094222
-0.0014156857
-0.0018881472
-0.0022768309
-0.0025551708
-0.0026560311