/*--------------------------------*- C++ -*----------------------------------*\
| =========                 |                                                 |
| \\      /  F ield         | OpenFOAM: The Open Source CFD Toolbox           |
|  \\    /   O peration     | Version:  2112                                  |
|   \\  /    A nd           | Website:  www.openfoam.com                      |
|    \\/     M anipulation  |                                                 |
\*---------------------------------------------------------------------------*/
FoamFile
{
    version     2.0;
    format      ascii;
    arch        "LSB;label=32;scalar=64";
    class       surfaceScalarField;
    location    "0.335";
    object      phi;
}
// * * * * * * * * * * * * * * * * * * * * * * * * * * * * * * * * * * * * * //

dimensions      [0 3 -1 0 0 0 0];

oriented        oriented;

internalField   nonuniform List<scalar> 
11923
(
-0.00010019509
-7.0605797e-06
-9.3134509e-05
-0.0003270577
0.00031999712
-9.3134509e-05
-4.7584744e-05
-0.00027947296
-4.9736366e-05
-8.9179832e-06
-8.4216526e-05
0.00042229513
-0.00046987987
-0.00028839094
-0.00058001949
-8.4216526e-05
-0.00015772436
-6.5721437e-05
-0.00040415844
-2.4725024e-05
-0.00026366592
-2.7789657e-06
-8.143756e-05
-0.00057686451
0.00041914015
0.00047076816
-0.0005364896
-0.00042888346
-0.00026644488
-8.143756e-05
-0.00010609635
-0.00024891114
-0.0005040096
-3.2480006e-05
-2.8395785e-05
-0.00040048768
-9.2860822e-06
-0.0002571588
1.8492377e-06
-8.3286797e-05
-0.00048729865
0.0003812023
-0.00063561419
0.00038670305
-0.00053240538
0.00063309306
-0.00066557307
-0.00040977376
-0.00025530956
-8.3286797e-05
0.00014579441
-0.00025441189
-0.0003848745
-2.539328e-05
-0.0005070121
-0.00060208374
-6.348933e-05
-9.8032057e-06
-0.00039997055
1.8212832e-06
-0.00025713084
5.4174627e-06
-8.870426e-05
0.00056641332
-0.00042061891
0.00031200143
-0.00073990899
0.00035503449
-0.00062747702
-0.00051681531
-0.00074173995
0.00067825062
-0.00039814927
-0.00025171338
-8.870426e-05
-0.00071295506
0.00029233615
-0.00042790756
-0.00053051385
-1.925265e-05
-0.00060822437
-2.4567443e-06
-0.00051435856
-0.00071598957
-2.5750377e-05
-3.470444e-05
6.5187129e-06
-0.00040466798
1.0526928e-05
-0.00026224031
7.8575924e-06
-9.6561852e-05
0.00074968101
-0.00045734486
0.00032177345
-0.00088603959
0.00035552575
-0.00073524222
-0.00061068111
-0.00050783985
0.00096014672
-0.00098589709
0.0007229324
-0.00075763684
-0.00039414105
-0.00025438272
-9.6561852e-05
0.00026558754
-0.00056426614
-0.00065792544
-2.2451393e-05
-0.00071279083
1.1192445e-05
-0.00062187356
1.9612026e-05
-0.00052745188
0.00020250987
-0.0007922282
-0.00019366889
2.0055148e-05
-0.0004141962
1.7052116e-05
-0.00027143483
9.1925879e-06
-0.00010575444
0.00093742804
-0.00067184049
0.00037316189
-0.0010409848
0.0003830594
-0.0008146796
-0.00070159838
-0.00060226153
-0.00050739673
0.0011871781
-0.00098466823
0.00063072391
-0.0008243928
-0.00039714409
-0.00026224225
-0.00010575444
0.00051533761
-0.00066782294
-0.00075897765
-0.0008242806
9.6010097e-06
3.609442e-05
-0.0007376928
4.2565808e-05
-0.00064482734
3.8012167e-05
-0.00054540889
-0.0012638338
0.00027916553
-0.00063310985
-0.00087579004
5.139724e-05
3.0281635e-05
-0.00042742572
2.1274931e-05
-0.00028351718
9.5072167e-06
-0.00011526166
0.001107834
-0.00059249637
0.00044001104
-0.0011703865
0.0004114088
-0.00078818618
-0.00086618903
-0.00069512699
-0.00060681517
-0.00051512726
0.0012144116
-0.00093524604
-0.00096051848
0.00032740863
-0.00090912124
-0.00040615079
-0.00027400996
-0.00011526166
-0.0011119896
0.00051949323
-0.00073037542
-0.00084790559
-0.00086763725
7.9451067e-05
-0.00095891945
9.2730416e-05
7.6166805e-05
-0.0007712938
6.5298605e-05
-0.00067211378
5.0805464e-05
-0.00056593272
0.00010242197
-0.0012707671
0.0003355211
-0.00094335851
-0.0010764537
0.0001673325
3.6647161e-05
-0.00044279795
2.3040025e-05
-0.00029704999
8.865156e-06
-0.00012412681
0.0011741073
-0.00065461409
0.00044373191
-0.0012751768
0.00042727126
-0.00079147045
-0.00087946838
-0.00098372332
-0.00070599519
-0.00062130831
-0.00052928556
0.0010410555
-0.00093863356
0.0013053701
-0.000969849
-0.0014052484
0.00046188987
-0.0012379159
-0.00041975792
-0.00028818483
-0.00012412681
0.00038644144
-0.00083144494
-0.00091638737
-0.00090963319
0.00011816274
-0.0010085716
0.00012910319
-0.0011026791
0.00011895574
0.00010047807
-0.00080647326
7.9008988e-05
-0.0007003173
5.7762937e-05
-0.0005870485
0.00036673654
-0.0014484405
0.00047859147
-0.0009865506
-0.0011747135
-6.3202404e-05
3.9036824e-05
-0.00045879475
2.2385981e-05
-0.00031057081
7.379041e-06
-0.00013150585
0.0012776756
-0.00089123418
0.00044623068
-0.00136948
0.00045309263
-0.00080915512
-0.00089040883
-0.00097357588
-0.0010557577
-0.00072746427
-0.00064255436
-0.00054801167
0.0013385528
-0.00097181624
0.0014468267
-0.00096823522
-0.0016215278
0.00063497719
0.00095166654
-0.0010148689
-0.00043640877
-0.00030319177
-0.00013150585
0.00044731859
-0.00092324932
-0.00093335361
-0.00095101129
0.00014185617
-0.0010554108
0.00016500198
-0.0011488029
0.00017522703
-0.0012128116
0.00015705389
0.00011361389
-0.00084107816
8.492359e-05
-0.00072747795
5.9136787e-05
-0.00060714846
0.00047501046
-0.0015328927
0.00056465749
-0.00066986125
-0.00089791552
-0.0012096599
0.00019479092
3.7548982e-05
-0.00047395775
1.9494234e-05
-0.000322686
5.2113355e-06
-0.00013671719
0.001437075
-0.00098975639
0.00051382567
-0.0014514939
0.00051814025
-0.0008373974
-0.00091355464
-0.00098380092
-0.0010375846
-0.001052606
-0.00075615457
-0.00066834117
-0.00056959948
0.0014821333
-0.0010071228
0.0014817599
-0.00091710245
-0.001193543
0.00052368173
-0.0016435109
0.00074559534
-0.00099875206
-0.00045446352
-0.00031747467
-0.00013671719
0.00049237688
-0.00093766819
-0.00087314947
-0.00099143965
0.00015404225
-0.0011015481
0.00018799347
-0.001196744
0.00021294309
-0.0012640025
0.00022641789
-0.0012986677
0.00024606176
0.00011779324
-0.00087394781
8.3839809e-05
-0.00075218098
5.5215537e-05
-0.00062481502
0.00047463713
-0.0014565409
0.00053943846
-0.0011198291
-0.00071094557
-0.0013044751
0.00030572307
3.2419461e-05
-0.00048688298
1.4675661e-05
-0.00033215033
2.532322e-06
-0.00013924951
0.0016626143
-0.0011702374
0.00072494614
-0.0014159738
0.00054282433
-0.00087364641
-0.00094750586
-0.0010087505
-0.0010510594
-0.0010722498
-0.0010584134
-0.00079010801
-0.00069696544
-0.00059239555
0.0014831813
-0.0010085442
0.0014185497
-0.00087911121
-0.0013710739
0.00025124474
0.00057295048
-0.001283896
-0.0010653508
-0.00047220731
-0.00032961801
-0.00013924951
0.00031294383
-0.00069102766
-0.00082062903
-0.00102701
0.00015336357
-0.0011398522
0.00019234631
-0.0012330557
0.00022430518
-0.0012989322
0.00024787276
-0.0013353511
0.00026310129
-0.0013392963
0.00028088297
0.00011276659
-0.00090287459
7.6194833e-05
-0.00077316027
4.6367074e-05
-0.00063876263
0.00041000551
-0.0013076111
0.00042849987
0.0013401593
-0.0010889145
-0.0007346606
5.6263223e-05
-0.0013432743
0.0002779235
2.404687e-05
-0.00049625419
8.2974922e-06
-0.0003379155
-4.2466949e-07
-0.00013882484
0.0013762505
-0.0010633066
-0.0012734192
0.00058239151
-0.0012766917
0.00045606268
-0.00091424339
-0.0009864886
-0.0010407094
-0.001074627
-0.0010874784
-0.0010761951
-0.0010623913
-0.00082667976
-0.0007267932
-0.00061471576
0.0013786166
-0.00096861106
0.0013306528
-0.00090215297
-0.0013189774
0.00023006285
-0.0010469107
0.00031225012
-0.00099064749
-0.0010410539
-0.00048795669
-0.00033834017
-0.00013882484
0.0001028313
0.00031530994
-0.0006943002
-0.00082688638
-0.0010469278
0.00013268442
-0.0011556097
0.00016912105
-0.0012437197
0.00020301034
-0.0013081124
0.00023348539
-0.0013452096
0.00025773127
-0.0013510548
0.00027485979
-0.00134256
0.00028016864
9.5708816e-05
-0.00092238857
6.1156946e-05
-0.00078795014
3.3104802e-05
-0.00064782056
0.00036204177
-0.0012136622
0.0003115092
0.0012222686
-0.00099220573
-0.00090141205
0.00023162109
-0.0013091674
0.00026811347
1.3007386e-05
-0.00050096408
8.0723797e-07
-0.00033914741
-3.6685572e-06
-0.00013515628
0.0010546997
-0.00095186839
0.001270072
-0.00095476203
0.00036039949
-0.0011936129
0.00036672657
-0.00095121899
-0.0010229252
-0.0010745987
-0.001105102
-0.0011117242
-0.0010933236
-0.0010677002
-0.0010289987
-0.00086123163
-0.00075484534
-0.00063481317
0.0013225403
-0.00096049856
0.0012539184
-0.0009424092
-0.0012436984
0.00025149267
-0.0011578651
0.00025645308
-0.00092624404
-0.00097558493
-0.00050015684
-0.00034281596
-0.00013515628
0.00031820358
0.0003677783
-0.00083321346
-0.00079571828
-0.001038946
8.7727019e-05
-0.0011395848
0.00011665958
-0.0012237729
0.00014917422
-0.0012886449
0.00018354288
-0.0013289093
0.00021718503
-0.0013408601
0.00024753651
-0.0013321406
0.00026444044
-0.0012949555
0.00026595676
6.1459426e-05
-0.00092269105
3.6991245e-05
-0.00079183659
1.5354978e-05
-0.00065016815
0.00029341984
-0.0011485593
0.00020615006
0.0011643529
-0.00091286025
-0.00089210618
0.00023810889
-0.0012318376
0.00025625264
1.7924938e-07
-0.00050033609
-7.3434289e-06
-0.00033547253
-6.7604634e-06
-0.00012839582
0.0011821458
-0.00086394225
0.001268862
-0.00090108373
0.00034893237
-0.0011090249
0.00031330666
-0.00097748659
-0.0010518578
-0.0011071133
-0.0011394707
-0.0011453664
-0.0011236751
-0.0010846041
-0.001030515
-0.00096588081
-0.00088569981
-0.00077648161
-0.0006499889
0.0013774418
-0.0010840219
0.0011115686
-0.00090541851
-0.0011506589
0.00023779862
-0.001094285
0.00020217884
-0.00085617614
-0.00089440623
-0.00050767952
-0.000342233
-0.00012839582
0.00040491978
0.00047635804
-0.00076009257
-0.00070726419
-0.0010021449
2.4658273e-05
-0.0010974058
4.554802e-05
-0.0011825178
7.5404483e-05
-0.0012518729
0.00011240217
-0.0012970061
0.00015163974
-0.0013136405
0.00018996542
-0.0013065187
0.00022191461
-0.0012688575
0.00023834249
-0.0012048396
0.00023895876
1.1442943e-05
-0.00089714275
1.6632093e-06
-0.00077814482
-7.1283339e-06
-0.00064286057
2.7546645e-05
-0.0010238348
0.0001184163
0.0010623904
-0.00082459179
-0.00082165597
0.00020621427
-0.0011219993
0.00022759307
-1.3842407e-05
-0.00049383711
-1.5232319e-05
-0.00032700068
-9.452024e-06
-0.00011894379
0.0011015448
-0.00069662503
0.0012465301
-0.00077017201
0.00034145224
-0.00095122892
0.00024396473
-0.00099070192
-0.0010727475
-0.0011369698
-0.0011764684
-0.001184604
-0.0011620007
-0.0011165533
-0.0010469429
-0.00096649708
-0.00088304055
-0.00089547954
-0.00078527315
-0.00065670298
0.00092391921
-0.00089637257
0.00092024422
-0.00080182792
-0.0010283841
0.0002037923
-0.00097392507
0.0001522691
-0.0007677108
-0.00080079102
-0.00050906943
-0.0003364527
-0.0001189438
0.00054990502
-0.0010362821
0.00026611011
-0.00060977668
-0.00063121587
-0.00094618403
-4.4517888e-05
-0.0010404852
-3.2262346e-05
-0.0011293353
-7.6344525e-06
-0.0012046004
2.8131965e-05
-0.0012562448
7.164087e-05
-0.0012783032
0.00011630251
-0.0012743648
0.00015781152
-0.0012352987
0.00018835583
-0.0011689261
0.00020242906
-0.0010846032
0.00020156269
-4.5800712e-05
-0.00084967883
-3.9933175e-05
-0.00074533998
-3.3291773e-05
-0.0006234112
-0.00011236291
2.3871658e-05
-0.00088451786
8.2689942e-05
0.0009322271
-0.0007284348
-0.00073224877
0.00016451631
-0.00098899494
0.00018820393
-2.8394039e-05
-0.00048067539
-2.2208937e-05
-0.00031424377
-1.1379058e-05
-0.00010756474
0.00081481952
-0.0002649145
-0.00061988655
0.00088599666
0.00020504284
-0.00077020482
0.00013898895
-0.00099198474
-0.0010850031
-0.0011615977
-0.0012122348
-0.0012281129
-0.0012066624
-0.0011580623
-0.0010774872
-0.00098057031
-0.00088217418
-0.00078743226
-0.00088961201
-0.00077863175
-0.00065180524
0.00065266348
-0.00076502639
0.00076723866
-0.000743367
0.0007772181
-0.00069452816
-0.00089010128
0.00016166647
-0.00084310023
0.00011085146
-0.00067858392
-0.00070189735
-0.00050288433
-0.00032562282
-0.00010756474
-0.00086573671
0.00060082222
3.2776926e-05
2.0259941e-05
-0.00056516198
-0.0005801432
-0.0008819016
-0.00011008314
-0.00097733218
-0.00010767091
-0.0010698673
-9.1730375e-05
-0.0011504733
-6.1761548e-05
-0.0012085574
-1.9555497e-05
-0.0012360609
2.9398566e-05
-0.0012378146
7.9752328e-05
-0.0011994488
0.00012196158
-0.0011297742
0.00014920387
-0.0010431243
0.00016095014
-0.00094649355
0.0001590613
-9.9854719e-05
-0.00078975729
-8.0565885e-05
-0.00069806587
-5.9424004e-05
-0.00059238124
2.2122761e-06
3.3851094e-05
-0.00075455161
6.0023449e-05
0.00079981821
-0.00063815174
-0.00064370015
0.00012123429
-0.00084674277
0.00014484542
-4.1985586e-05
-0.00046089874
-2.76286e-05
-0.00029799422
-1.2269409e-05
-9.5295328e-05
3.566024e-05
-0.00060517018
0.00063794711
-0.00061838537
0.00063864531
-0.00064528136
6.5138163e-05
-0.00098175632
-0.0010874153
-0.0011775382
-0.0012422036
-0.0012703189
-0.0012556164
-0.0012084161
-0.0011196965
-0.0010078126
-0.00089392045
-0.00078554341
-0.00068768148
-0.00087032317
-0.00075748987
-0.00063436682
0.00062261491
-0.00062040263
0.0006404861
-0.00060663501
0.00063826329
-0.00057823984
-0.00075594688
0.00011779515
-0.00071902511
7.5324958e-05
-0.00059779081
-0.00061110146
-0.00048852735
-0.00031026363
-9.5295328e-05
-0.00060962112
1.7444724e-05
1.9561738e-05
2.9024194e-05
0.00056743124
-0.00050229308
-0.00081876422
-0.0001629921
-0.00091625092
-0.0001711644
-0.0010115048
-0.00016603341
-0.0010958056
-0.00014639801
-0.001159011
-0.00011130795
-0.0011908025
-6.481395e-05
-0.0011975048
-1.0911307e-05
-0.0011608799
4.118338e-05
-0.0010894492
8.1636618e-05
-0.0010009535
0.00010703307
-0.00090359758
0.00011805417
-0.00080411374
0.00011643226
-0.00014247636
-0.00072784681
-0.00011289863
-0.00064459124
-8.0324208e-05
-0.00055404262
2.0083472e-05
3.1628282e-05
-0.00062007229
4.1832447e-05
0.00067844279
-0.00056064764
-0.00054474733
8.0651978e-05
-0.00071348384
0.00010238238
-5.2367873e-05
-0.00043615947
-3.0734096e-05
-0.00027952954
-1.1992611e-05
-8.3302717e-05
0.00049639599
-0.00047895126
-0.00048361374
0.00050317548
0.00051863835
-0.00048961416
1.2640417e-05
1.6345269e-05
-0.00096124059
-0.001079243
-0.0011826692
-0.001261839
-0.001305409
-0.0013021104
-0.0012623187
-0.0011717912
-0.0010482658
-0.0009193169
-0.00079656451
-0.00068605957
-0.00059705158
-0.00084074543
-0.00072491545
-0.00060641049
0.00049344313
-0.00047335966
0.00049180218
-0.0004601739
0.00048324241
-0.00044140996
-0.00063746843
7.682079e-05
-0.0005923151
4.7567771e-05
-0.00051166312
-0.00053508606
-0.00046689357
-0.00029152215
-8.3302717e-05
1.2782248e-05
1.449187e-05
1.3561321e-05
-0.00036162671
0.0003583649
-0.00034201963
-0.00076343568
-0.0001978049
-0.00086288644
-0.00021635658
-0.00095993619
-0.00022273302
-0.001045586
-0.00021625304
-0.0011118563
-0.00019355266
-0.0011470829
-0.00015502756
-0.0011574086
-0.00010491012
-0.0011228897
-4.8901473e-05
-0.0010505761
2.3102322e-06
-0.00096092719
4.1610286e-05
-0.00086339033
6.682582e-05
-0.00076484425
7.8784677e-05
-0.00067489014
7.7838564e-05
-0.00016847739
-0.00067226805
-0.00013154418
-0.00059337127
-9.2089013e-05
-0.00051432148
1.8442516e-05
2.306851e-05
-0.00046760151
2.6191547e-05
0.00055995061
-0.00048312982
-0.00042003374
4.8287484e-05
-0.00059978203
6.4695971e-05
-5.7361807e-05
-0.00040953176
-3.076358e-05
-0.00026075857
-1.040489e-05
-7.2897827e-05
-0.0003263753
0.00033915755
0.00033304081
-0.00031854894
0.00034720483
-0.00033364351
-3.2618035e-06
5.1851991e-06
-0.00093191307
-0.0010606913
-0.0011762928
-0.001268319
-0.0013281093
-0.0013406356
-0.0013124362
-0.0012277998
-0.0010994775
-0.00095861695
-0.00082178004
-0.00069801843
-0.00059610546
-0.00052194346
-0.00080381223
-0.00068546028
-0.00057168328
0.00032668749
-0.00030824497
0.00031794059
-0.00029487208
0.00030557391
-0.00027938237
-0.00052703646
4.3906645e-05
-0.0004469783
2.6944561e-05
-0.00039869081
-0.00046234049
-0.00044029534
-0.00027116346
-7.2897827e-05
6.6655081e-06
5.5140355e-06
8.1385474e-06
0.00014065971
-0.00014392151
0.00014392151
-0.00013873631
-0.00072054933
-0.00021136374
-0.00082093315
-0.00023975819
-0.00091867675
-0.00025761602
-0.0010047981
-0.00026352096
-0.0010714206
-0.00025668875
-0.0011097929
-0.00023084269
-0.0011214947
-0.00019094146
-0.0010913041
-0.00013649575
-0.001019502
-7.9975545e-05
-0.00092864474
-2.997222e-05
-0.00083039394
8.6138941e-06
-0.00073226995
3.4251525e-05
-0.00064275749
4.6652024e-05
-0.00056781533
4.5871865e-05
-0.00017532498
-0.00062848725
-0.00013453777
-0.00055092251
-9.2746627e-05
-0.00047893666
9.6956166e-06
1.0701837e-05
-0.00029022702
1.0844651e-05
0.00042381166
-0.00037990502
-0.00026328246
2.5120852e-05
-0.00049702675
3.4686259e-05
-5.5617233e-05
-0.00038467811
-2.7290164e-05
-0.0002438733
-7.5628243e-06
-6.5335003e-05
0.00013322228
-0.00012655677
0.00013873631
-0.00013322228
0.00012655677
-0.00011841822
-0.00089587431
-0.0010322969
-0.0011584349
-0.0012624141
-0.0013349416
-0.0013664816
-0.0013523374
-0.0012822455
-0.0011559978
-0.0010086203
-0.00086036616
-0.00072365606
-0.00060850596
-0.0005211633
-0.00045115489
-0.00076302502
-0.00064366914
-0.00053455389
0.00011841822
-0.0001087226
0.0001087226
-9.8020768e-05
9.8020768e-05
-8.7176117e-05
-0.00040064214
2.0737122e-05
-0.00027326711
9.9846494e-06
-0.00024814625
-0.00036595588
-0.00041196827
-0.00025143612
-6.5335003e-05
-0.00069282967
-0.00020304464
-0.00079355098
-0.0002387459
-0.00089062106
-0.00026781388
-0.00097607084
-0.00028634325
-0.0010423394
-0.00029260217
-0.0010822565
-0.00028422511
-0.0010947725
-0.00025756492
-0.0010719084
-0.00021033707
-0.0010018276
-0.00015417016
-0.00090972666
-9.8893622e-05
-0.00080952506
-5.0841096e-05
-0.00071024757
-1.3408492e-05
-0.00061992404
1.1418081e-05
-0.00054379484
2.2631537e-05
-0.00047268785
2.1532962e-05
-0.00016355361
-0.00059947141
-0.00012229239
-0.00052137675
-8.2216285e-05
-0.0004523376
-8.7176117e-05
0.00025626053
-0.00023552341
-7.7191468e-05
8.1142756e-06
-0.00037999507
1.4039192e-05
-4.6973027e-05
-0.00036499524
-2.0426983e-05
-0.00023100914
-3.6929527e-06
-6.1642051e-05
-0.00085638328
-0.00099659562
-0.001129367
-0.0012438847
-0.0013286826
-0.0013748587
-0.0013789976
-0.0013294734
-0.0012121647
-0.0010638968
-0.00090841868
-0.00076108866
-0.00063333254
-0.00053237676
-0.00045005631
-0.00035846211
-0.00072176381
-0.00060359303
-0.00049931063
-0.00024086425
5.340838e-06
-7.7191468e-05
-6.9077192e-05
-0.00022682505
-0.00038542223
-0.00023470209
-6.1642051e-05
-0.00067935804
-0.00017702523
-0.0007809438
-0.00021565182
-0.00087742854
-0.00025193843
-0.00096114755
-0.00028273717
-0.0010265527
-0.00030212993
-0.001067467
-0.0003073917
-0.0010796898
-0.00029930775
-0.001064236
-0.0002652374
-0.0009984401
-0.00021372455
-0.00090602675
-0.00015787008
-0.00080339982
-0.00010501886
-0.00070173648
-5.9352182e-05
-0.00060888038
-2.445216e-05
-0.00052957746
-2.7992971e-06
-0.00045595861
5.9023003e-06
-0.00036402908
5.5669718e-06
-0.00013732029
-0.00058444352
-9.820985e-05
-0.00050538318
-6.244724e-05
-0.00043686339
6.9077192e-05
-6.3736354e-05
-0.00022871809
1.8930397e-06
-3.2515094e-05
-0.00035290713
-1.0786802e-05
-0.00022391529
8.5429927e-07
-6.249635e-05
-0.00081667833
-0.00095796904
-0.0010930804
-0.001213086
-0.0013092899
-0.0013695969
-0.0013870815
-0.0013635437
-0.0012636775
-0.0011197513
-0.0009612699
-0.00080675534
-0.00066823256
-0.00055402962
-0.00045875791
-0.00035812678
-0.00022315112
-0.00068265337
-0.00056783042
-0.00046937848
-6.3736354e-05
-6.1843314e-05
-0.00036369394
-0.00022306099
-6.249635e-05
-0.00067924485
-0.00013743348
-0.00078213351
-0.00017583553
-0.00087928187
-0.00021379849
-0.00096151288
-0.00025157309
-0.0010234622
-0.00028582772
-0.0010628859
-0.00030671101
-0.0010756305
-0.000311451
-0.001066472
-0.00029707173
-0.0010086794
-0.0002549981
-0.00091776483
-0.00020198647
-0.00081259022
-0.00014867968
-0.00070774978
-9.900556e-05
-0.00061084171
-5.7390848e-05
-0.00052654981
-2.7479817e-05
-0.00044828013
-1.0477779e-05
-0.0003543326
-3.7941853e-06
-0.00022115921
-1.9919116e-06
-9.9523187e-05
-0.00058313018
-6.4831022e-05
-0.0005029994
-3.5954667e-05
-0.00043342382
-6.1843314e-05
-1.3936917e-05
-0.00034975702
5.9351514e-07
-0.00022365451
5.7651112e-06
-6.8261462e-05
-0.00077876804
-0.00091956698
-0.0010551174
-0.0011753114
-0.0012750352
-0.0013487136
-0.0013823415
-0.001377923
-0.0013057511
-0.0011727629
-0.0010145767
-0.00085642946
-0.00070984727
-0.00058394065
-0.00047575995
-0.00036481038
-0.00022495339
-6.3835226e-05
-0.0006479612
-0.00053895407
-0.00044736073
-0.0003491635
-0.00021788939
-6.8261462e-05
-0.00069303066
-8.5737382e-05
-0.0007968167
-0.00012275029
-0.00089555449
-0.00015956291
-0.0009790159
-0.00019629547
-0.0010401407
-0.00023489458
-0.0010753204
-0.00027339321
-0.0010837008
-0.00029864076
-0.0010741328
-0.00030379015
-0.0010288121
-0.00027693908
-0.00094387055
-0.00022889237
-0.00083670318
-0.00017787351
-0.00072797965
-0.00012844981
-0.00062576499
-8.4082279e-05
-0.00053492922
-4.9011433e-05
-0.00045003104
-2.5728909e-05
-0.00035181507
-1.2995304e-05
-0.00021913431
-5.8190855e-06
-6.3835226e-05
-5.1610687e-05
-0.00059635052
-2.4319528e-05
-0.00051463454
-5.2073494e-06
-0.00044215338
6.805591e-06
-0.00035596909
1.2504231e-05
-0.00023039363
1.0068102e-05
-7.8329564e-05
-0.00074464134
-0.00088255408
-0.0010183048
-0.0011385788
-0.0012364361
-0.001310215
-0.001357094
-0.0013727736
-0.0013326022
-0.0012208096
-0.0010655955
-0.00090585317
-0.0007542148
-0.0006190115
-0.00049904247
-0.00037754398
-0.00023212961
-6.9654311e-05
-0.00062067004
-0.00051984189
-0.00043534779
-0.00034346486
-0.00022032552
-7.8329564e-05
-0.00072209984
-2.2541502e-05
-0.00082608178
-5.6472296e-05
-0.00092542216
-9.2882622e-05
-0.0010091773
-0.00012940156
-0.0010708012
-0.00016563498
-0.0011045298
-0.00020568515
-0.001110064
-0.00024703
-0.0010949268
-0.00027784675
-0.0010544781
-0.00027812415
-0.0009787763
-0.00024203334
-0.00087277929
-0.00019281626
-0.00076044378
-0.00014540939
-0.0006524941
-0.0001017207
-0.00055396722
-6.5044276e-05
-0.00046086106
-3.8181408e-05
-0.00035669288
-2.0851097e-05
-0.00022310967
-9.0199429e-06
-6.9654311e-05
3.840287e-06
-0.00062451033
1.9899066e-05
-0.00053974095
2.6623609e-05
-0.0004619714
2.7072864e-05
-0.00037053773
2.3216321e-05
-0.00024354184
1.3310733e-05
-9.1640297e-05
-0.00071825956
-0.00084862329
-0.00098189445
-0.0011020599
-0.0012002027
-0.0012701648
-0.0013157491
-0.0013419568
-0.0013323248
-0.0012569005
-0.0011148126
-0.00095326004
-0.00079790348
-0.00065568793
-0.00052590534
-0.00039487429
-0.00024396077
-7.8674254e-05
-0.00060461127
-0.00051311734
-0.00043489854
-0.00034732141
-0.00023023111
-9.1640297e-05
-0.00076634976
4.8090203e-05
-0.00087126792
2.2644637e-05
-0.00097089771
-1.099674e-05
-0.0010532518
-4.8808123e-05
-0.0011129483
-8.7254422e-05
-0.0011431139
-0.00012705094
-0.0011449043
-0.0001708448
-0.0011267617
-0.00021519514
-0.0010852215
-0.00024710334
-0.0010170731
-0.0002398273
-0.00091688073
-0.0001979319
-0.0008008531
-0.00015240695
-0.00068714382
-0.00011075966
-0.00058091297
-7.4774958e-05
-0.00047917085
-4.673449e-05
-0.00036826902
-2.6605273e-05
-0.0002326916
-1.1269167e-05
-7.8674254e-05
6.1617031e-05
-0.0006662283
6.3126139e-05
-0.00057624348
5.6057689e-05
-0.00049095623
4.4573207e-05
-0.00039189461
3.1556055e-05
-0.00026178717
1.5074835e-05
-0.00010671513
-0.00070473273
-0.00082317772
-0.00094825307
-0.0010642485
-0.0011617564
-0.0012303683
-0.0012719553
-0.0012976065
-0.0013004166
-0.0012641765
-0.001156708
-0.00099878499
-0.00083955077
-0.00069167263
-0.00055394581
-0.00041500351
-0.00025929687
-8.9943421e-05
-0.00060310216
-0.00052018579
-0.00044638302
-0.00036033856
-0.00024671233
-0.00010671513
-0.00082212938
0.00011739665
-0.00092945043
0.00010627271
-0.0010298944
8.1641302e-05
-0.0011109472
4.6698661e-05
-0.0011680069
6.2505133e-06
-0.0011930284
-3.7339877e-05
-0.0011869977
-8.4957576e-05
-0.0011639428
-0.00013366367
-0.0011190216
-0.00018139502
-0.0010546115
-0.00020956504
-0.00096410472
-0.00019260331
-0.0008470811
-0.00015170389
-0.0007268988
-0.00011265197
-0.00061296505
-7.8707574e-05
-0.00050281034
-5.113547e-05
-0.00038515323
-2.9850276e-05
-0.00024692317
-1.2373704e-05
-8.9943421e-05
0.0001147377
-0.00071783986
0.00010047294
-0.00062065873
7.921919e-05
-0.00052560221
5.7153653e-05
-0.00041749221
3.659521e-05
-0.00028330754
1.5281009e-05
-0.00012199614
-0.00070739168
-0.00081205378
-0.00092362167
-0.0010293059
-0.0011213083
-0.0011867779
-0.0012243376
-0.0012489004
-0.0012526853
-0.0012360065
-0.0011736698
-0.0010396844
-0.00087860269
-0.00072561702
-0.00058151791
-0.0004362887
-0.00027677345
-0.00010231712
-0.00061736692
-0.00054143954
-0.00046844856
-0.000380897
-0.00026802653
-0.00012199614
-0.00088314987
0.0001757582
-0.0009930752
0.00018102142
-0.0010938198
0.00017019812
-0.0011743864
0.00014508059
-0.0012297846
0.00010847634
-0.0012499251
6.3147174e-05
-0.0012363461
1.2008501e-05
-0.0012068895
-4.2010898e-05
-0.0011559267
-9.6758581e-05
-0.0010893325
-0.00014667394
-0.0010065772
-0.00016709252
-0.00089653303
-0.00014315137
-0.00077034845
-0.00010825423
-0.00064818947
-7.7427552e-05
-0.00052991034
-5.1607575e-05
-0.00040577627
-3.0512433e-05
-0.00026443014
-1.2343306e-05
-0.00010231712
0.00015621172
-0.00077357864
0.00012635064
-0.00066779019
9.3785967e-05
-0.00056223452
6.4101648e-05
-0.00044499865
3.8063619e-05
-0.00030609015
1.4003543e-05
-0.00013599968
-0.00072693815
-0.000817317
-0.00091279836
-0.0010041883
-0.001084704
-0.0011414487
-0.0011731989
-0.001194881
-0.0011979376
-0.0011860911
-0.0011532512
-0.0010636256
-0.00091349983
-0.00075644371
-0.00060733789
-0.00045738385
-0.00029494257
-0.00011466043
-0.000647228
-0.00057400422
-0.00049813287
-0.00040693503
-0.00029208661
-0.00013599968
-0.00094229179
0.00021535364
-0.0010546548
0.00023733776
-0.0011559064
0.000243108
-0.001236347
0.00023215865
-0.0012908893
0.00020618526
-0.0013056612
0.00016421245
-0.0012872885
0.00011408958
-0.0012521588
5.7277814e-05
-0.0011942729
-3.6646337e-06
-0.0011218555
-6.4235619e-05
-0.001039726
-0.0001135252
-0.00094091781
-0.00012270774
-0.0008155605
-9.7939329e-05
-0.00068517466
-7.1269046e-05
-0.00055891265
-4.8425242e-05
-0.00042861647
-2.8767376e-05
-0.00028367669
-1.1265886e-05
-0.00011466043
0.00018031332
-0.00082754132
0.00013973859
-0.00071374281
0.00010016454
-0.00059829742
6.552576e-05
-0.00047246079
3.6109654e-05
-0.00032819626
1.1495512e-05
-0.0001474952
-0.00076197846
-0.00083930113
-0.0009185686
-0.00099323898
-0.0010587306
-0.0010994759
-0.001123076
-0.0011380693
-0.0011369951
-0.0011255201
-0.0011039616
-0.001054443
-0.00093826824
-0.00078311399
-0.00063018169
-0.00047704171
-0.00031244406
-0.00012592632
-0.00068780273
-0.00061357827
-0.00053277166
-0.00043635114
-0.00031670075
-0.0001474952
-0.00099635385
0.00023437539
-0.0011106512
0.00027135002
-0.001213294
0.0002947254
-0.0012938334
0.00030059446
-0.0013456381
0.00028690742
-0.0013540475
0.00025457157
-0.0013338488
0.00021077275
-0.0012936665
0.00015559728
-0.0012293084
9.2313298e-05
-0.0011505401
2.5019937e-05
-0.0010647374
-3.9224226e-05
-0.00097240038
-8.2042623e-05
-0.00085781848
-8.0449763e-05
-0.0007226123
-6.0501694e-05
-0.00058835658
-4.1825108e-05
-0.00045217431
-2.4867405e-05
-0.000303124
-9.3200651e-06
-0.00012592632
0.00018947368
-0.00087727641
0.00014256998
-0.00075614825
9.8915111e-05
-0.00063168677
6.1643652e-05
-0.00049799479
3.1072344e-05
-0.00034777309
8.070017e-06
-0.00015556521
-0.00080688017
-0.00087627577
-0.00094194397
-0.00099910804
-0.0010450436
-0.0010671401
-0.0010792772
-0.0010828938
-0.0010737111
-0.0010582268
-0.0010397174
-0.0010116246
-0.0009398611
-0.00080306206
-0.00064885828
-0.00049399941
-0.0003279914
-0.00013524638
-0.00073470643
-0.00065723313
-0.00057004311
-0.00046692244
-0.00033970307
-0.00015556521
-0.001046465
0.00023958481
-0.0011630415
0.00028676575
-0.0012641908
0.00032224683
-0.0013411908
0.00034208274
-0.0013860084
0.00034096482
-0.0013895959
0.00032245588
-0.0013691489
0.0002898717
-0.0013245579
0.00024166409
-0.0012553444
0.00018163328
-0.0011716033
0.00011337653
-0.0010813833
4.1665848e-05
-0.00098965132
-2.1973294e-05
-0.00088779596
-5.206514e-05
-0.0007577576
-4.5304457e-05
-0.00061682475
-3.2033527e-05
-0.00047490042
-1.9098998e-05
-0.00032128387
-6.7075272e-06
-0.00013524638
0.00018727502
-0.00092198146
0.0001360482
-0.00079328133
9.0363706e-05
-0.00066040682
5.2751489e-05
-0.00051967393
2.3401069e-05
-0.00036310414
4.0044542e-06
-0.00015956967
-0.00085918996
-0.00092345671
-0.00097742505
-0.001018944
-0.0010439257
-0.0010486311
-0.001046693
-0.0010346862
-0.0010136803
-0.00098997001
-0.00096800676
-0.00094798547
-0.00090976926
-0.00080982274
-0.00066212921
-0.00050693394
-0.00034038287
-0.00014195391
-0.00078593326
-0.00070291763
-0.00060765533
-0.00049627286
-0.00035909969
-0.00015956967
-0.0010903316
0.00023114163
-0.0012067882
0.00028333154
-0.0013023828
0.00032495774
-0.0013707681
0.00035182414
-0.0014037486
0.00035982288
-0.0014042794
0.00035564825
-0.0013849082
0.00033821514
-0.0013378612
0.00030317505
-0.0012670688
0.0002533885
-0.0011810257
0.00019105574
-0.0010877679
0.00011976116
-0.00099453005
4.6544582e-05
-0.00090061962
-9.1496398e-06
-0.00078485685
-2.4965896e-05
-0.00064266207
-1.9467136e-05
-0.00049518078
-1.1753167e-05
-0.00033678774
-3.5951354e-06
-0.00014195391
0.00017479603
-0.00096072928
0.0001212253
-0.00082414293
7.539972e-05
-0.00068305505
3.9325143e-05
-0.00053559801
1.3592866e-05
-0.00037269255
-3.5712416e-07
-0.00015921254
-0.00091553556
-0.00097564662
-0.0010190512
-0.0010458104
-0.0010519244
-0.0010444565
-0.0010292599
-0.00099964608
-0.00096389378
-0.00092763725
-0.00089671218
-0.00087476888
-0.00085407503
-0.00079400649
-0.00066762797
-0.00051464791
-0.0003485409
-0.00014554904
-0.00083950398
-0.00074874321
-0.00064372991
-0.00052200514
-0.00037304968
-0.00015921254
-0.00111065
0.00019511442
-0.0012180754
0.00024242875
-0.0013042875
0.00028523629
-0.0013666473
0.00032083693
-0.001398384
0.00034645959
-0.001401384
0.00035692754
-0.0013816777
0.00035241775
-0.0013339092
0.00033426311
-0.0012635186
0.00029962482
-0.0011767364
0.00024909919
-0.0010818802
0.00018516803
-0.00098681146
0.00011204257
-0.00089651315
4.2438116e-05
-0.00079652071
2.5142291e-06
-0.00066297644