/*--------------------------------*- C++ -*----------------------------------*\
| =========                 |                                                 |
| \\      /  F ield         | OpenFOAM: The Open Source CFD Toolbox           |
|  \\    /   O peration     | Version:  2112                                  |
|   \\  /    A nd           | Website:  www.openfoam.com                      |
|    \\/     M anipulation  |                                                 |
\*---------------------------------------------------------------------------*/
FoamFile
{
    version     2.0;
    format      ascii;
    arch        "LSB;label=32;scalar=64";
    class       surfaceScalarField;
    location    "0.335";
    object      ddtCorrDdt0(phi);
}
// * * * * * * * * * * * * * * * * * * * * * * * * * * * * * * * * * * * * * //

dimensions      [0 3 -2 0 0 0 0];

oriented        oriented;

internalField   nonuniform List<scalar> 
11836
(
0.00012991558
-0.00013689992
0.00026681293
-0.00036350519
0.00022660631
5.1204251e-05
0.00021560566
-0.00019143486
-0.00011806272
0.00034466777
-0.00010050494
0.0001517125
-7.0763369e-05
0.00028637334
-0.00043179183
0.00024035662
-0.00037481222
0.00025675137
0.00027390481
0.00015171274
2.4224231e-05
0.00026214778
-0.00020519369
-0.00013445697
-0.00012296061
0.00037971232
-4.4462762e-05
0.00031836938
0.00017593951
-1.8446496e-05
0.00028059841
5.1329267e-05
0.00024350306
-0.00037796013
-0.00032270126
0.00019974092
0.00033524972
0.00029992136
0.00017593985
2.1600363e-06
0.00027843643
0.00024543797
-0.00019410935
-7.9198947e-05
-0.00013252375
-9.7858306e-05
0.00029759884
4.1040543e-05
0.00029420979
2.4719367e-05
0.00027520292
0.0001781024
1.9951528e-05
0.00025848753
-0.00026538266
7.1272399e-05
0.00020050361
-0.00027970325
-0.00023488958
0.00010236565
-0.00026947217
0.00017161404
0.00029885716
-1.2573126e-06
0.00033989829
0.00031892796
0.0002951521
0.00017810296
-1.2767983e-05
0.00027125418
-0.00020071567
-0.00016361841
-6.896882e-05
-0.00023766816
-4.2035356e-05
-0.0001353032
0.00021607724
-4.4462452e-05
0.00021481964
8.3948366e-05
0.00025594994
8.5012636e-05
0.00023391606
6.446525e-05
0.00023068673
0.00016533736
4.4708544e-05
0.00022654779
9.7354044e-05
-0.00027028928
0.00010667094
0.00019322317
-0.00026219288
0.00017602461
-0.00021806104
-0.00024732342
0.00011201978
-0.00025081869
0.00020635628
0.00025248231
-3.7662495e-05
-0.00018963623
0.00027358483
0.00034096158
0.00029837934
0.00027539314
0.00016533814
-2.2350818e-05
0.00024889807
-0.00017293557
-0.00014065258
-5.7595246e-05
-8.6166867e-05
-0.0001060403
0.00022527049
-1.891348e-05
6.284638e-05
0.00018760784
0.00024328383
3.0301004e-05
0.00016549318
0.00017546844
0.00011476708
0.00018361194
8.6497306e-05
0.00018889562
0.00014298926
5.9948884e-05
0.00018895087
-0.00029854195
0.00012560577
-0.00027312472
0.00013247143
-0.00029836874
0.00024077364
0.00017822333
-0.00026439095
-0.00025840226
0.0001523615
-0.00024438233
0.00022547004
-0.00016808033
0.00023092621
1.9528376e-05
0.00011621452
0.00012706974
-0.00018013899
0.00021043993
0.00028170689
0.000290234
0.00027010743
0.00024884287
0.00014298997
-2.7474499e-05
0.00021642518
-0.00017226363
-0.0001475179
-0.00012593014
-0.00012014396
-3.6088021e-06
-0.00011202829
0.00021286826
1.2602876e-05
5.0788213e-05
0.00023239698
-0.00012969266
0.0002567627
8.07477e-05
0.00013646667
0.00014524027
0.00014577791
0.00014445582
0.00012412103
0.0001459861
9.9678516e-05
0.00014916422
0.00011551677
6.8660045e-05
0.00014776606
0.00014679376
-0.00029545724
0.00014793895
-0.00027815872
0.00015222813
-0.0002671623
0.00014701725
-0.00024460081
0.00024099198
-0.00026957437
0.00015754577
-0.00023346843
0.00024607227
-0.00019391352
0.0002447018
3.848447e-05
0.00013673349
0.00012002957
-0.00017766802
0.00025841582
0.00028224343
0.00028197315
0.00026857542
0.00024566329
0.00021782322
0.00011551723
-2.9703809e-05
0.00017746974
-0.00014866256
-0.00013021892
-0.00011734546
-0.00010961533
0.0002522986
-0.00010528078
7.6978907e-06
7.5235698e-06
0.00021754454
2.8529133e-05
6.7034609e-05
0.00025602926
-0.00016037777
0.00028040786
9.8038252e-05
0.0001320957
0.0001501474
0.00014147351
0.00014049956
0.00014750717
0.00012106791
0.00013256447
0.00011309848
0.00010612569
0.00011169718
8.5814028e-05
7.1176042e-05
0.00010629374
-0.00031063565
0.0001619721
-0.00029051447
0.00016029477
-0.00027730124
0.00015995514
-0.00026684636
0.00015723077
-0.0002537393
0.00014845752
-0.00021862457
0.00022632147
-0.00024955063
0.00025707474
-0.00023929671
0.0002678269
-0.00020150988
0.00026854438
5.4520202e-05
0.0001574788
0.00012292908
-0.00018684957
0.0002848878
0.00027960181
0.00029162008
0.00029797791
0.00025363135
0.00021922339
0.00018287267
8.5814114e-05
-2.98518e-05
0.00013614535
-0.00014259723
-0.00012854165
-0.00011700563
-0.00010689034
-9.6507164e-05
-7.0165749e-05
-2.3228819e-05
1.7778099e-05
0.00022457799
4.3249998e-05
8.1695356e-05
0.00027909848
-0.00017934623
0.00030227574
0.00010554156
0.00016122235
0.0001183789
0.00014091532
0.00015070418
0.00015454121
0.00014343649
0.00015992376
9.3707134e-05
0.00013863714
8.0585684e-05
0.00010658618
7.6285815e-05
5.5962319e-05
6.7532501e-05
6.8612164e-05
0.00018057817
-0.0003003124
0.00017177017
-0.00028369759
0.000166691
-0.00027208691
0.00016519596
-0.00026261264
0.00016610522
-0.00025874756
0.00018858065
-0.00029835821
0.00027512908
-0.00026319133
0.00028097049
-0.00024278637
0.00028603735
-0.00021271411
0.00029440952
6.6384932e-05
0.0001743481
0.00012792742
-0.00020333349
0.00030887506
0.00030213696
0.00027830195
0.00030524482
0.00031778434
0.00023234378
0.00018717166
0.0001438183
5.5962077e-05
-2.5534773e-05
9.4146824e-05
-0.00011973375
-0.00011192676
-0.00010539507
-9.7415705e-05
-9.2640857e-05
-0.00010977596
1.1937843e-05
3.8184682e-05
0.00023127046
5.4767977e-05
9.1076181e-05
0.00029765573
-0.0001985976
0.00032652546
0.00011027742
0.00015121221
0.00015092375
0.00018991228
8.8388854e-05
0.00015553626
0.00014970806
0.00016164809
0.0001561358
0.00016660685
6.5736155e-05
0.00013487
5.2300772e-05
9.7517443e-05
4.6299912e-05
3.0427068e-05
5.6771059e-05
3.7374993e-05
-0.00030397968
0.00018424526
-0.00028736718
0.0001754399
-0.00027429577
0.00016889974
-0.00026456776
0.00016715142
-0.00025753083
0.00016488972
-0.0002558457
0.0001460689
-0.00029165386
0.00030359183
-0.0002519616
0.00029014668
-0.00024232912
0.00029709814
-0.00022330786
0.00031438445
7.4348155e-05
0.0002011939
0.00012533089
-0.0002183693
0.00032864695
0.0003067482
0.00034083582
0.00025499544
0.00031135581
0.00035732956
0.00020060617
0.00014981841
0.00010307129
3.0426814e-05
-1.8154046e-05
5.5529011e-05
-0.00010104724
-0.00010312155
-9.8855227e-05
-9.566723e-05
-9.0378356e-05
-9.095475e-05
0.00024675421
-0.00010068459
-4.4899421e-05
5.1630623e-05
4.7818673e-05
0.00023829989
5.8799367e-05
9.601485e-05
0.00031264844
-0.00021699575
0.00034232715
0.00011165098
-1.8395785e-05
0.00032514383
7.2762919e-05
0.00026807229
0.000196747
5.8247582e-05
0.00029295988
9.6904792e-05
0.00026042441
0.00015640685
4.4198235e-05
0.00011921339
3.0603901e-05
7.883096e-05
2.423936e-05
1.2272566e-05
4.1364458e-05
1.4163992e-05
-0.00029670312
0.0001956553
-0.00028679051
0.00018366856
-0.00027378398
0.00017492819
-0.00026318997
0.00016752188
-0.00025518914
0.00016481001
-0.0002464589
0.00015550378
-0.00022706306
0.0001263785
-0.00017311375
0.00012821448
-0.00023576328
0.00028739409
-0.00024173912
0.00028955807
-0.00025180634
0.00031060679
-0.0002334209
0.00032943673
7.9227203e-05
0.00020410783
0.00013821811
-0.00023059918
0.00034225044
3.8388226e-05
0.00028675526
0.00026950987
0.00030646065
0.00021465462
-2.634734e-05
0.000319307
0.0003010128
0.00023407698
0.00016341199
0.00010943537
6.560422e-05
-1.3661744e-06
1.3638723e-05
-1.1109944e-05
2.5273891e-05
-8.5669477e-05
-9.1135051e-05
-9.0115033e-05
-8.8261173e-05
-8.766654e-05
-8.1647852e-05
-7.1558765e-05
-4.6735188e-05
0.00031267662
-0.00018446149
7.6913525e-05
4.5655908e-05
3.7753487e-05
0.00025384839
5.6759125e-05
9.8836538e-05
0.00033307599
-0.00024357245
0.00038179113
9.8677698e-05
-4.3907912e-05
0.00033066343
5.1856348e-05
0.00021765301
4.1881558e-05
0.00026457907
0.00017105674
4.3596825e-05
0.00027539907
0.00010235268
0.00019866005
0.00033642993
0.00013627631
2.7134308e-05
9.3764687e-05
1.566939e-05
5.2867052e-05
1.2736341e-05
-1.3662903e-06
2.52859e-06
2.1572571e-05
3.7011032e-06
0.00020845299
-0.00029452479
0.00020338924
-0.0002750936
0.00018497807
-0.00026052421
0.00017226248
-0.00025231443
0.00016464729
-0.00024767121
0.00016602272
-0.00023493794
0.00016337889
0.0001618611
-0.00020859596
-2.2600848e-05
0.00025518293
-0.0001782699
-0.00022072513
0.00026637987
-0.00024728845
0.00028504197
-0.00028693761
0.00034369804
-0.00024309835
0.00034193623
8.9976723e-05
0.00020682388
0.00017496707
-0.00023343019
0.00033210871
4.8460121e-05
0.00028220308
0.00022291326
0.00025953452
0.00031303952
0.00017987374
-7.4561201e-05
0.00034996037
0.00040548449
0.00026186899
0.00012089961
6.8537082e-05
3.4308834e-05
-1.3665917e-06
1.3665917e-06
1.1616827e-06
-1.1616827e-06
4.8619753e-06
-8.6071607e-05
-7.170414e-05
-7.5545728e-05
-8.005142e-05
-8.3023221e-05
-6.8914409e-05
-4.5217386e-05
0.00018711414
-0.00020971443
3.4459101e-05
-0.0002273724
4.9103408e-05
1.9093752e-05
-1.8939752e-06
0.00026772454
7.597462e-05
0.00010850462
0.00035770227
-0.00012421001
0.00029917813
0.00026810996
6.3998533e-05
-7.0934258e-05
0.00035313763
0.00016118266
6.1730732e-05
2.5651172e-05
0.00023388325
3.4750778e-05
0.0002782889
0.00014595003
3.392372e-05
0.00027902614
0.0001092505
0.00029623459
0.00037111969
0.00011619687
4.7023225e-06
5.8913729e-05
9.6236879e-06
2.9126757e-05
5.1826615e-06
4.8621361e-06
-0.00035639071
0.00027031867
-0.00028587979
0.00021417511
-0.00026056209
0.00018501583
-0.00024911968
0.00016906776
-0.00024553047
0.00016250703
-0.00026249296
0.00019357877
0.00017852599
-0.00022374263
-4.0258689e-05
-3.1189149e-05
-0.00020044328
0.0002349024
0.00020978781
-0.00016068478
-0.00023376994
0.00025286402
-0.00025092907
0.00024903725
-0.00018559665
0.00026157253
-0.00023554806
0.00034405371
0.00012215308
0.00014390002
0.00034106571
-4.1886806e-05
-0.00018072588
0.00024472445
5.9861629e-05
0.0002932755
0.00018683422
0.00020768087
0.00026863457
0.00033815114
0.00015012148
-9.6361618e-05
0.00037538757
-8.0359051e-05
0.00037659465
0.00027475847
6.361709e-05
3.8750498e-05
1.0044359e-05
-9.1988803e-05
-1.5560906e-05
-4.6386709e-05
-6.4103376e-05
-7.6462145e-05
-9.9985546e-05
-3.0163264e-05
0.00015457817
-0.00019483743
0.00019364028
-0.00022482921
9.3449563e-06
1.1344722e-06
-6.1059894e-06
1.9365684e-06
0.00025720313
-8.1650726e-06
7.1606624e-05
0.00024408617
1.748656e-05
0.00016332759
-0.00015234941
0.00027450438
0.00024432618
-0.00010042593
0.00026070662
0.00020243953
0.00014429813
-0.00010143664
0.00039471233
-3.2394505e-05
0.00021922846
0.00017528739
6.3935166e-06
0.00026224088
2.7595072e-05
0.00031055596
0.00015796838
-7.8464995e-06
0.00027395099
9.9988984e-05
0.00027660607
0.00037474744
-2.776906e-05
9.1386437e-05
1.0981415e-05
1.0044341e-05
0.00024787795
-0.0002591979
0.00024363674
-0.00025527288
0.00020888569
-0.00024570187
0.00018159796
-0.00023766815
0.00016120547
-0.00023002646
0.00013004091
0.00017560194
-0.00020576488
-1.197118e-06
-4.9226711e-05
-0.0002118562
0.00022120061
-0.00020513459
0.00020626921
0.00017554189
-0.00018164907
-0.00027322951
0.00027516748
-0.00020948302
0.00020131893
-0.00014133365
0.00021293995
9.1736287e-05
-0.00017306481
0.00019055135
-0.00011351733
0.00027684587
0.00022488774
4.9616829e-05
0.00040136566
-0.00014065886
0.00032209474
-0.00011965594
-0.0001427418
0.00028703945
7.8130689e-05
0.00031658175
0.00022562277
-1.8427928e-05
0.00019371535
0.00028983677
0.0003886876
0.00013954137
8.3540992e-05
-0.00012341305
0.00039736406
-9.1250609e-05
0.00036785692
0.00025133473
2.1026712e-05
0.00030208952
-5.4211638e-05
4.2891728e-05
-1.1635893e-05
-3.6815809e-05
-5.6069618e-05
-6.8820299e-05
0.00020499518
-7.4953539e-05
-7.6919515e-07
0.00016534309
-0.00016654016
0.00013384707
-0.00018307301
-3.6313019e-05
1.6066002e-05
-6.6958621e-05
-1.6305266e-05
6.5684289e-05
5.9985005e-05
3.9874959e-05
-0.00013678554
0.00022852232
5.3765627e-05
0.00011137024
0.00013410389
-0.00014910479
0.00019872262
0.00031011498
0.00018143616
0.00016738346
-0.00019123985
0.00050782182
-7.6598212e-06
0.00023328244
0.00018605624
3.8331491e-06
0.00028600341
-3.8774816e-06
0.00039256466
-2.3048072e-06
0.00014184638
8.2070685e-05
1.4713332e-06
0.00020612461
0.0001062201
0.00026163736
0.000357555
2.1027441e-05
-0.00028496622
0.00023075445
-0.00021209039
0.00025498191
-0.00024912791
0.00023749182
-0.00024419893
0.00020738275
-0.00023625077
0.00018018063
-0.00022828388
0.00015946329
-0.00020784587
0.00013289246
0.00015863714
-0.00015940576
-0.00018046881
1.3929289e-05
-4.6621661e-05
-2.4435973e-05
0.00016138539
-0.00019769901
-0.00014793981
0.00016400466
-0.00015937207
9.2414402e-05
0.00014736363
-0.00016366829
-0.0001816473
0.00024733165
-0.00015213075
0.00021211683
-0.00013127631
0.00017115159
7.9417049e-05
-0.00020422219
0.00025798717
-9.8578992e-05
0.00020994961
-0.00019683132
0.00033093499
0.00010014352
0.00034777791
-3.7662519e-05
0.00032694296
-0.00014550644
-0.00014533972
0.00031272268
0.00027005673
0.00023776515
0.00023711632
-2.6926276e-06
0.00018874882
0.00028212669
9.4571869e-05
0.00029799399
7.9766753e-05
0.00013915451
2.2499337e-05
-0.00015169663
0.00035782112
-7.6933753e-05
0.00033857056
0.00020585817
-0.00030575548
2.0789325e-05
1.8664101e-05
5.8540674e-06
-6.7069435e-06
-2.8867535e-05
-4.8102576e-05
-4.8382434e-05
-2.6513627e-05
0.00014426815
-0.00013033857
0.00011477235
-0.00016139382
0.00014813858
-0.00017257406
0.00018004392
-1.8658602e-05
-5.033449e-05
3.2104381e-05
4.6332325e-06
0.00020136714
-0.00010895178
-1.9399747e-05
-0.00020447946
2.2831662e-05
9.5200867e-05
8.0839392e-05
-3.3069878e-05
-0.00014896012
0.0002283781
0.00010902683
1.3118312e-05
0.00018559505
-0.00013654532
0.00023668945
0.00027084432
-0.00032855819
0.00029089649
-1.6153749e-06
0.00016721622
-0.00010384898
0.00037390581
0.00033233645
1.8879601e-06
0.00023522824
0.00019063742
-4.9666322e-06
0.00028709311
-2.3759662e-05
0.00032175269
9.5281511e-07
7.8815476e-05
4.2233497e-06
0.00013493209
2.2500122e-05
0.00038253408
-2.4712331e-05
8.6017676e-05
0.00025255301
0.00029187587
-0.0003397593
0.00036054866
-0.00020732108
0.00022598501
-0.00027651462
0.00028236857
-0.00024567059
0.00023896357
-0.0002376074
0.00020873949
-0.00023092761
0.00018282419
-0.00023964142
0.00019125887
0.00016326295
-0.0001897759
-1.5566114e-05
-1.3255494e-05
-9.3117046e-06
-0.00013860068
0.00011994245
0.00010761915
-0.00015795298
-0.00011762074
0.00014972501
0.00013812678
-0.00013349291
-3.1125246e-06
2.9174565e-05
0.00013061618
-0.00015001534
0.00013369889
-0.00011086775
-0.00013271817
0.00022792104
0.00019878978
-0.00011794792
0.00016571932
9.1832835e-05
-0.0001327148
0.0002417421
0.00024980804
0.00031414034
-0.00012854572
0.00033001524
-5.9170606e-05
0.00031889211
-2.7995095e-05
-0.00030138553
0.00029977071
-0.00013416953
0.0002786838
-2.8051759e-05
0.00040195743
0.00030428383
0.00023026229
8.1496683e-06
0.00018248781
0.00026333429
3.8601612e-05
0.0002831508
2.3453111e-05
8.3038858e-05
0.00014308232
0.00026716341
-8.1022505e-05
0.00033357519
1.5667172e-05
0.00015322746
-5.0529319e-05
3.6697927e-05
1.3564778e-06
-2.2187666e-05
-5.6816372e-05
1.482564e-06
0.00013237062
-0.00014793675
0.00014332322
-0.0001565789
0.00017833045
-0.00018764253
-0.00014951731
1.091675e-05
2.321572e-06
-4.1898077e-05
-2.7336465e-05
1.6232127e-05
0.00012649431
-0.00012960832
0.00015682474
-0.00012764969
-1.7644358e-05
0.00023663451
-0.0001029364
1.5625376e-05
0.00010391655
0.00010997281
0.00030010893
-0.00013438891
-0.00012611354
0.00021794712
0.00016739475
0.00011562908
0.00031225512
-6.2447234e-05
0.00017997066
0.00018370922
0.00024899309
0.00025972154
-0.00029275196
0.00026475765
7.0186319e-06
-0.00010542877
0.00038411338
7.7950736e-05
0.00032400674
0.00034288508
4.9499353e-06
0.00022531225
0.00018743831
-2.9984376e-06
0.00026633237
-1.6798523e-05
0.000299948
2.3453921e-05
2.5863093e-06
8.0454511e-05
8.9395533e-06
0.00013414436
-7.7798863e-05
0.0003449615
0.00025577674
0.00040952521
0.00025414989
-0.00010092212
0.00020362046
-0.00022098566
0.00025768339
-0.00023306084
0.0002344172
-0.00022375416
0.00020156624
-0.00021570679
0.0001588897
0.00017079086
-0.00016930896
-4.613387e-06
2.1751423e-05
-1.6851264e-05
0.000122
-0.00011108377
-0.00012920227
0.00013152334
9.7515439e-05
-0.00013941428
0.00011836258
-0.00014569908
0.00016701697
-0.00015078478
2.7214954e-05
3.9365396e-05
0.00012771726
-0.00014536134
-0.0001228428
1.990492e-05
-0.00010721886
-0.00013029992
0.00023421647
0.00023485359
-0.00012487933
0.0001004653
0.00025176375
-3.3816216e-05
-6.5744289e-05
0.00023313938
0.00020037842
-8.4748882e-05
0.00018931648
-0.0001452503
0.00032522081
0.00028839999
-0.00010469096
0.00032652819
-7.7534317e-05
0.00031102047
-5.1298091e-05
0.00029151142
-2.6753757e-05
-0.00025493989
0.00026195846
0.00023953318
0.00034314659
4.0967498e-05
0.00042109809
-5.2317278e-05
0.00037632395
0.00029056677
0.00022231448
1.770815e-05
0.0001697308
0.00024953481
2.8863326e-05
0.00027108398
2.6039586e-05
8.9393581e-05
0.00015185286
-0.00010587703
0.00036165489
0.00035113641
5.8388752e-05
0.00025021417
0.00026612577
-6.2505272e-05
4.5140334e-05
2.4622785e-05
1.0663402e-05
-1.4140132e-05
0.00019626049
-3.7370703e-05
2.6951895e-05
0.00013651665
-0.00014113006
0.00014773517
-0.00012598378
-0.00015348076
0.00013662932
-7.2026465e-06
-1.3568542e-05
-1.9261533e-05
-2.1051564e-05
-1.7981501e-05
0.00013799111
-0.0001107786
0.00016118777
-0.00012182383
-8.8443526e-06
-9.5069546e-05
0.00011497354
3.0771155e-05
-0.00017478449
4.4484904e-05
0.00010933747
-0.0001325821
0.00023304833
0.00016656263
-0.0001943108
0.00012856735
0.0001483909
0.0002670723
-7.7755757e-05
0.00014314956
7.0280732e-05
0.00016238123
0.00022065153
0.00023348618
0.00024021315
-0.00026749324
0.00024073938
-5.5350966e-06
0.00029545103
-5.5916649e-05
0.00033641986
0.00014486419
0.00027623542
7.3773612e-05
0.00030254997
0.00031942996
1.6047698e-05
0.00020626667
0.00018577902
-7.3284034e-07
0.00025026696
-1.7678036e-05
0.00028876085
2.6040121e-05
4.5029006e-06
8.4892475e-05
3.3288855e-05
0.00011856653
0.00030573829
-0.00022244233
0.00028083112
0.00025144941
-1.2350371e-06
0.00018894407
-0.00018627625
0.00023141657
-0.00023735861
0.00026198165
-0.00020757999
0.00021824362
-0.00020215177
0.00018801167
-0.00018350577
0.00014613505
0.00015844818
-0.00013149632
6.6053494e-06
-0.00015514767
2.9163849e-05
4.9673044e-06
-1.8518553e-05
0.00011892131
-0.00012612442
0.0001161609
-0.00012973038
-0.00013055724
0.00011129569
0.00011663534
-0.00013768742
0.00012498251
-0.00014296407
5.0407938e-05
-0.00013877288
1.6948443e-05
0.00013015438
-0.00013899852
-0.00012541603
3.0345604e-05
-5.9810976e-05
-9.4645942e-05
-8.7377016e-05
0.0001318625
0.00020681586
-9.7477878e-05
7.4233153e-05
3.873684e-05
0.00024019322
-7.3629859e-05
0.00023433542
-0.00010576851
0.00022420999
-7.5818199e-05
0.0001624375
0.00025849287
-0.00011534362
-0.00013882371
0.00020910405
0.00026362979
-0.00010124885
0.00031879584
-9.8144056e-05
0.00030637812
-7.2891317e-05
0.00029004987
-4.9836407e-05
0.00027511405
-3.4374799e-05
-0.00022875818
0.00022322263
0.00038042513
-4.4003421e-05
-0.00015843394
0.00030329941
0.00035000941
-2.9232955e-05
0.00033178296
0.00029019606
0.00020553468
4.8285865e-05
0.00013749383
0.00023258999
2.6626726e-05
0.00026213353
3.054178e-05
0.0001181805
0.00016685201
0.00038098853
-7.5248678e-05
8.4691155e-05
0.00022618948
5.4641587e-05
0.00022495412
2.6678129e-06
-5.9419751e-06
5.4401962e-05
1.6092155e-05
4.5061071e-06
1.4638829e-05
0.0001304325
-0.00012382701
0.00013033367
-0.00010116984
-0.00013824838
0.00014321569
0.00011239098
-0.00013090966
-1.1636202e-05
-9.9636564e-06
-1.3094991e-05
-2.7477425e-05
-1.2704815e-05
-1.2809569e-05
0.00013283211
-8.2426325e-05
0.0001091126
-9.2165186e-05
-8.5659105e-06
0.00011405664
-8.3711567e-05
5.4246198e-05
3.8185104e-05
-0.00013102188
4.3645359e-05
0.00018123903
-4.9376494e-05
8.3761035e-05
-0.00010583192
0.00018006606
0.00016785135
-0.00012911494
0.00015058043
0.00015851744
6.2082385e-05
0.00025005622
-8.7618765e-05
0.00011966907
0.00014828639
-1.9654243e-05
0.00014880774
0.00018905767
0.00012973841
0.00020823368
0.0002171582
0.00022527753
-0.00025616662
0.00022179202
-3.2944122e-05
0.00022199139
0.00033698474
0.00027696753
2.633245e-05
7.8231456e-05
0.00027177889
4.0449771e-05
0.00029133323
0.00031682312
9.081868e-06
0.00019645253
0.00014657609
-1.30928e-05
0.00024568219
-3.2127062e-05
0.00029425937
3.0542138e-05
4.5990489e-06
0.00011358291
1.8600413e-05
0.00014825343
0.00011380821
-0.00016018593
0.00024487684
-0.00015246053
0.00020710183
0.0001997264
2.5227712e-05
0.00020239422
-0.00019200906
0.00018606722
-0.00015097442
0.00020537672
-0.00017813409
0.00019422663
-0.00019192253
0.00019642866
0.00015991516
-0.00014527637
6.5066194e-06
1.1220684e-05
2.1666558e-05
1.2305495e-05
-0.00012036612
0.00010872981
0.00011679821
-0.00012676237
0.00011789339
-0.00013098855
8.7685735e-05
-0.00011516319
0.00012029751
-0.00013300244
0.00013502807
-0.0001478376
-0.0001219423
3.9514541e-05
-1.2830142e-05
-4.480076e-06
0.00011299559
-0.00012156132
-0.00012265896
3.8946319e-05
-7.6775588e-05
-8.4474759e-05
0.00011509955
-7.1454173e-05
6.5723029e-05
0.00016456671
-8.0804062e-05
5.8733304e-05
5.0949539e-05
0.00022880299
-7.8222249e-05
0.00020175038
-4.3232477e-05
0.00019217945
-0.00013009797
0.00014118457
0.00021303035
-9.3361332e-05
0.00025383743
-0.0001055509
0.00019337602
0.00024937517
-0.00010056736
0.00017461505
-4.4877488e-05
0.00030025913
-9.2025648e-05
0.00028010156
-6.294319e-05
0.00027369996
-4.8422225e-05
0.00026284729
-4.1055385e-05
-0.00025001338
0.00021706912
0.00027255982
-5.0568144e-05
0.00027520156
6.1784594e-05
0.00035519882
0.00029889281
0.00031222904
-6.3234644e-06
0.0002976561
0.00031049777
0.00018336064
0.00016517693
0.00021355602
4.1138146e-05
0.00025311969
3.5139337e-05
9.2407302e-06
0.00010434244
0.00015749452
0.00028842386
3.0451899e-05
9.2416055e-05
0.00016320532
4.3896371e-05
0.00018843281
1.0385153e-05
0.00020136338
-1.5295945e-05
5.0389134e-05
2.7242956e-05
2.3041553e-06
5.1152175e-05
0.00011824786
-0.00011174128
0.00012229879
-0.00011107838
-0.00013531649
0.0001569829
0.00012950169
-0.00011719636
-3.5679817e-06
-6.4337101e-06
-8.8688273e-06
-1.0690924e-05
2.0256691e-06
-3.4842107e-05
0.00012415588
-8.4642871e-05
8.3033368e-05
-9.586414e-05
9.4122308e-05
-9.8602407e-05
-3.3135929e-06
0.00012941948
-9.0473261e-05
5.2644277e-05
3.967986e-05
-0.0001122092
4.0754928e-05
0.00014485414
-7.9131718e-05
6.4048872e-05
-8.8597203e-05
0.00014732947
0.00014951946
-9.8570914e-05
0.00012352856
-0.00016334444
0.00012011236
2.8835867e-05
1.9420685e-05
0.00023018215
-8.899753e-05
0.00016047612
0.00014382448
-5.6637457e-05
0.00012961497
0.00025538167
0.00018807551
0.00021075645
0.00021442518
-0.00024877867
0.00020772349
-3.170967e-05
0.0002246329
-0.00014652172
0.00020830614
0.00012009743
0.0002351022
0.00027448418
2.44085e-05
5.9407793e-05
0.00025282173
-8.2487136e-06
0.00030590572
0.00035163639
-2.040461e-06
0.00018540181
0.00016313644
-4.6118295e-05
0.00025967378
-3.801822e-05
0.00029113549
3.5139216e-05
-7.3588406e-06
0.00011170271
-4.2585558e-05
0.00020008137
0.00030480843
-1.6384842e-05
0.00016167582
0.00013949622
-4.708043e-05
-0.00010912443
0.00015302023
0.00016043548
2.7997275e-05
0.00017082066
-0.00015217243
0.00013687649
-0.00011494218
0.00016533146
-0.00014075617
0.00016799947
-0.00015891806
0.00016122251
0.00013389749
-8.2745608e-05
1.055736e-05
1.8423253e-05
-1.4190972e-06
3.978664e-05
-0.00011326461
0.00010969639
9.9475372e-05
-0.00010590932
0.00012421689
-0.00013308571
0.00010500322
-0.00011569417
0.00011463589
-0.00011261022
-9.8248562e-05
6.3406406e-05
-1.610297e-06
-1.742672e-06
8.7256946e-07
9.9344082e-05
-0.00010265769
-0.00010538939
1.4914513e-05
-5.9565032e-05
-6.5710311e-05
0.0001116001
-7.084592e-05
3.2468875e-05
0.00011661672
-5.2568197e-05
2.8018942e-05
4.87583e-05
0.00021172028
-8.8191084e-05
0.00013240011
-1.2286911e-05
-8.0435471e-05
0.00010927096
0.00010039337
-8.0973113e-05
0.00012272329
0.00027963104
-0.00011915479
0.00024273574
-9.8911092e-05
0.00022299366
0.00024289272
-0.00011327776
0.00024092513
1.4456041e-05
0.00025663523
-6.8559903e-05
0.00024972534
-3.8968976e-05
0.00028086339
-6.6438184e-05
0.00024463428
-3.6910889e-05
-0.00026382361
0.00023211393
-2.5523818e-05
0.00025015657
0.00015828745
0.00020817375
1.3240627e-07
-0.00016993637
0.00029003447
0.00029450996
0.0001045468
-0.00018595089
0.0002103598
0.00024457348
0.0002067424
9.9163111e-05
9.7486011e-05
0.00025414814
0.00013928423
0.00012055185
0.0002216564
3.9561086e-05
0.00025157238
2.7777593e-05
5.086165e-07
0.00011119224
0.00020059041
0.00022454071
0.00014375384
1.7921969e-05
3.037173e-05
9.6673237e-05
0.00012299254
3.0027593e-05
0.00015098964
1.8648339e-05
2.1934549e-05
2.4575536e-05
9.0816474e-06
0.00017838982
-1.716747e-05
9.5644116e-05
0.00011175197
-0.00010119463
0.00011663373
-9.8210587e-05
-0.00011182665
0.00011040744
0.00012351695
-8.3730353e-05
1.0952358e-05
3.7872258e-06
-2.8082439e-05
-1.0582168e-06
-0.00013012618
1.7515862e-05
1.0955395e-06
-6.6719737e-05
-8.3072471e-05
8.1461763e-05
8.5221804e-05
-8.696454e-05
9.1363129e-05
-9.0490927e-05
9.0941786e-06
8.4921835e-05
-7.0007166e-05
-9.0582481e-05
3.1017511e-05
-9.0136892e-05
2.4425818e-05
-9.0467335e-05
1.9620289e-05
7.0373614e-05
-3.7905295e-05
-9.0023133e-05
3.7454453e-05
-5.172139e-05
7.9740383e-05
0.00010020269
-5.1445114e-05
4.4209373e-05
-0.00010003292
8.7746326e-05
-0.00010319299
2.2757815e-05
9.2388021e-06
-2.7998633e-06
1.9229091e-05
0.00018287218
-6.0149e-05
0.00012358086
0.00014398183
-4.0830278e-05
6.9594437e-05
-0.00021926598
0.000233722
3.7369124e-05
0.00018116517
0.00024189397
0.00017819617
-0.00021381127
0.00017690021
1.8302531e-05
0.00018265026
6.4205372e-05
0.00019484809
-3.6559999e-05
0.0001949812
0.00020684835
8.3184467e-05
7.4845289e-05
0.00021966549
-0.0001513044
0.00025585183
5.9054464e-05
0.00018566944
5.8905121e-05
0.00030422968
0.00028483345
0.00029370927
0.00025983583
-4.1212352e-05
0.00026286689
-1.5414185e-05
0.00026698273
2.7776105e-05
2.5266352e-06
0.00010866532
1.2485453e-05
0.000188106
0.00023161377
-7.0723327e-06
-7.7898331e-05
9.5820066e-05
-8.2760787e-05
0.00011313221
1.3912324e-05
-8.9942134e-05
0.0001199693
0.00012212645
2.8863311e-05
0.00014077479
-0.00011342651
0.00013536109
-0.00011206226
0.00013663797
-0.00012222987
0.00013131175
-0.00013169553
0.0001145282
-1.6182628e-05
1.5438941e-05
2.5306349e-05
0.00011855596
-8.1485126e-06
3.4825699e-05
-9.3716476e-05
0.00010466909
9.6931738e-05
-9.3144709e-05
5.930703e-05
-8.7389309e-05
8.977345e-05
-9.0831503e-05
9.9044368e-05
-8.1528337e-05
8.7482462e-05
-8.6386818e-05
2.0762797e-05
2.1490053e-06
-8.6754416e-06
4.3983134e-06
6.4409859e-06
9.9264336e-05
-9.0169978e-05
-5.6612515e-06
-7.8828845e-05
8.8206583e-06
-5.9449556e-05
-5.4403374e-05
6.4190886e-05
-4.4571317e-05
-1.9649365e-05
-6.1346209e-05
2.3440659e-05
7.44517e-05
-3.6998243e-05
2.2729335e-05
7.6889279e-05
2.8504521e-06
2.5444162e-05
-8.3717773e-05
0.00012792725
4.0290643e-06
-5.2327248e-05
7.5084886e-05
-6.8583158e-05
7.7822416e-05
5.7297362e-05
-6.009733e-05
6.8112361e-05
-4.8883151e-05
-0.00014121418
8.1065971e-05
0.00021543648
-9.1855616e-05
0.00020342073
-5.9438997e-05
-0.00021970892
0.00017887848
-7.223501e-05
0.00014182944
0.00022164946
1.2072318e-05
-0.00018707617
0.00022444473
-5.9110219e-06
0.00022314165
1.8752557e-05
-5.4391718e-05
0.00023258792
0.00022196485
-4.5064758e-05
-0.00012665641
0.0001449587
0.00016196077
2.0689706e-05
0.00022616612
0.00019505457
0.00022165108
-2.6668459e-05
0.00028169355
-0.00018667298
0.00026985823
0.0002785706
6.917729e-05
-0.00017774309
0.00023679777
6.7841143e-05
0.00023638845
0.00021876845
6.6066505e-05
4.4451999e-05
0.00024925453
0.00021862437
0.00024745355
6.7162563e-06
0.00026026436
3.0299166e-05
-4.839359e-06
0.00011350122
0.0002311098
0.00018326726
0.00021457734
3.3476779e-05
6.9205261e-05
2.661484e-05
2.3190067e-05
8.3117454e-05
9.1265108e-05
2.8704202e-05
0.0001201282
2.7348368e-05
2.3299061e-05
1.4408299e-05
-3.8369025e-07
0.00013064809
-1.6120239e-05
0.00011446529
0.00010367913
-8.8240036e-05
0.00010546687
-8.0160341e-05
-9.3575731e-05
8.5427224e-05
0.00010151401
-6.6688052e-05
-0.00011511019
2.1393966e-05
1.1524617e-05
-5.5803388e-05
2.3841976e-06
8.2130683e-06
-9.5830996e-05
1.430279e-05
1.2877541e-05
-7.5068064e-05
7.2087603e-05
-6.9938468e-05
6.0485793e-05
-6.9161582e-05
8.4971849e-05
-8.0573805e-05
7.9388311e-05
-7.294776e-05
1.3508981e-05
5.6306659e-05
-6.1967257e-05
6.3996369e-05
-5.5175497e-05
-3.1435909e-06
6.082046e-06
2.8443033e-06
-5.6068639e-05
1.1496568e-05
-5.3803936e-05
3.4154069e-05
-3.0363812e-05
-5.0506992e-05
1.3508303e-05
4.6345919e-05
-2.3617411e-05
-3.9449252e-05
4.2298499e-05
6.5514654e-05
-4.0071176e-05
-1.3286831e-05
-7.3891563e-05
7.7921257e-05
4.9702044e-06
6.5017831e-06
3.9308555e-06
8.0149396e-06
1.6631218e-05
0.00012112158
-4.0055964e-05
-4.2724157e-06
0.00011156517
-0.00017809343
0.00011865449
0.00022128947
-4.2411205e-05
4.8886795e-05
-3.6263931e-05
-0.00020759484
0.00021966709
1.6850127e-05
0.00021723053
-0.00019594538
0.00021469769
0.00016757277
3.6642509e-05
-0.00016778551
0.00012272044
9.4632949e-05
-2.2826912e-05
0.00024234091
4.8423071e-05
0.0002096918
-1.463598e-05
0.00018302428
0.00021658555
6.5107024e-05
0.0002075693
6.2286057e-05
0.00021644427
6.2127203e-05
-0.00018407024
0.00025324818
5.2727649e-05
0.00028661074
0.00028084168
0.00028251095
0.00025597054
-2.655752e-06
0.00025010766
3.2344182e-05
0.00022791615
3.0296993e-05
2.2024791e-06
0.00011129833
0.00022845541
-5.4474794e-06
0.00018871651
0.00020952904
5.0490553e-06
6.8458711e-05
-3.0006552e-05
5.6621379e-05
-6.1220339e-05
8.4410195e-05
2.1897073e-05
-6.4245967e-05
9.2949981e-05
8.6373914e-05
3.375439e-05
0.00011372225
-8.509798e-05