/*--------------------------------*- C++ -*----------------------------------*\
| =========                 |                                                 |
| \\      /  F ield         | OpenFOAM: The Open Source CFD Toolbox           |
|  \\    /   O peration     | Version:  2112                                  |
|   \\  /    A nd           | Website:  www.openfoam.com                      |
|    \\/     M anipulation  |                                                 |
\*---------------------------------------------------------------------------*/
FoamFile
{
    version     2.0;
    format      ascii;
    arch        "LSB;label=32;scalar=64";
    class       volScalarField;
    location    "0.335";
    object      p;
}
// * * * * * * * * * * * * * * * * * * * * * * * * * * * * * * * * * * * * * //

dimensions      [0 2 -2 0 0 0 0];

internalField   nonuniform List<scalar> 
8100
(
0.3451718
0.36501112
0.35906348
0.38146103
0.33523411
0.37439396
0.38608014
0.40004124
0.32585704
0.3630067
0.39551631
0.36201991
0.39761319
0.41563069
0.30320603
0.3367356
0.37341711
0.4087501
0.42054996
0.43236431
0.30261927
0.32275664
0.36205086
0.39830726
0.42770613
0.43159723
0.44683449
0.29979884
0.33110771
0.29728003
0.36822718
0.41360916
0.44146506
0.45215353
0.46099308
0.26836043
0.31467141
0.29351508
0.33760539
0.37191236
0.40016801
0.43421732
0.45784446
0.46149467
0.47328771
0.25126841
0.26971621
0.3156305
0.29204691
0.29109024
0.34413081
0.37068884
0.41337885
0.44656646
0.46883682
0.47866491
0.48432138
0.23224066
0.24681809
0.29988772
0.28178387
0.26021263
0.32168307
0.37415452
0.40628442
0.43674949
0.46341144
0.48190425
0.48582868
0.49388913
0.23077958
0.24299228
0.30079102
0.27908774
0.2618939
0.32404484
0.37949054
0.34535588
0.41550478
0.45391559
0.4746546
0.49029346
0.49906408
0.50171978
0.20920017
0.22212212
0.27787762
0.25800787
0.23934963
0.30356376
0.37307642
0.35448883
0.42803275
0.39946618
0.45103082
0.4706663
0.48747027
0.5000479
0.5039537
0.50869181
0.18900465
0.20462888
0.21886228
0.25169574
0.28032478
0.23470359
0.31002133
0.37888282
0.3351634
0.43094969
0.41327358
0.46275601
0.48207069
0.49585828
0.50603058
0.51333066
0.51392227
0.16439044
0.17963138
0.19485258
0.22875556
0.2522789
0.20950703
0.28677629
0.36657098
0.342846
0.44245307
0.40119734
0.47995628
0.46135666
0.49405807
0.50486752
0.51291201
0.51625564
0.5185824
0.15896259
0.17389628
0.18789046
0.20252896
0.22187958
0.22150916
0.25636479
0.2930186
0.37735602
0.32211081
0.43815155
0.41529321
0.49206096
0.47582328
0.50359523
0.51149554
0.51685604
0.52217549
0.52143043
0.13229805
0.14630671
0.15927886
0.1714007
0.18104437
0.20336049
0.22864592
0.26675451
0.36150205
0.33228208
0.45377521
0.40315087
0.5045763
0.49256413
0.47466558
0.5121214
0.51732076
0.52118068
0.52356313
0.52438132
0.11099156
0.12515547
0.13812996
0.15117779
0.16081162
0.17648249
0.19798041
0.23227537
0.27505811
0.37529682
0.30971498
0.44700515
0.42024752
0.51759103
0.50903195
0.49223483
0.52155268
0.52322165
0.52399592
0.52687941
0.52579309
0.083145074
0.096493261
0.10856964
0.12065376
0.12984993
0.14336863
0.16363569
0.19778742
0.2445521
0.35713548
0.32233517
0.46843061
0.40764054
0.52232969
0.52641716
0.51112087
0.49062801
0.5263001
0.5261594
0.52636675
0.52727332
0.52730177
0.074668016
0.086966122
0.098120598
0.10888261
0.11805497
0.12991542
0.15980459
0.20404474
0.25524535
0.37415571
0.29621874
0.46214279
0.42946281
0.54197012
0.54106361
0.5326234
0.51585315
0.53606076
0.53202092
0.52889552
0.52805927
0.52721494
0.044787311
0.056045253
0.06605741
0.075142628
0.083940492
0.098268893
0.11171463
0.16527262
0.22025099
0.35306559
0.31218033
0.4877559
0.41479917
0.54919508
0.55001798
0.54475558
0.53367236
0.51751592
0.53744616
0.53249395
0.52882815
0.53122585
0.52651245
0.023303141
0.034362662
0.044593029
0.053089351
0.0609451
0.068710627
0.082121634
0.069881828
0.11714884
0.17293951
0.23348125
0.3750277
0.28197626
0.47922225
0.44355572
0.56738228
0.57022743
0.55924238
0.56663715
0.54614283
0.54766514
0.5390273
0.53221752
0.53176821
0.52882681
-0.0057121307
0.003417572
0.012113145
0.019173252
0.024972314
0.029155564
0.033126123
0.049530748
0.071386431
0.12984502
0.19306645
0.35114405
0.3021648
0.51365158
0.42835143
0.587336
0.57265958
0.59027051
0.55936936
0.58405496
0.54264504
0.5728165
0.54634882
0.5370833
0.52966923
0.52467561
0.52204632
-0.028579556
-0.01807984
-0.0091715946
-0.0014761167
0.0040837593
0.0095063332
0.012126767
0.02240788
0.0171439
0.021048767
0.077485629
0.13848629
0.20817961
0.37998035
0.2661135
0.50653842
0.46236848
0.61721894
0.59200218
0.61542574
0.57510571
0.61367746
0.58536156
0.59782809
0.55710627
0.54531337
0.53698799
0.51499231
0.5210024
0.52690039
-0.051975326
-0.046649366
-0.04061254
-0.034856366
-0.031038949
-0.028119213
-0.027634657
-0.02430616
-0.025585011
-0.02193709
0.030119489
0.088335873
0.1559421
0.35291484
0.29395918
0.55883409
0.44581623
0.64551214
0.59093573
0.61293358
0.64375999
0.57246802
0.64162827
0.59100351
0.63290336
0.55452759
0.5435948
0.53249841
0.52183182
0.52061102
0.52545048
-0.067697538
-0.061493977
-0.055522785
-0.050918888
-0.048894662
-0.046980439
-0.045392268
-0.056603012
-0.022258167
-0.071339076
0.030315417
0.087830236
0.17961548
0.38861912
0.25128845
0.56773508
0.47542808
0.67911802
0.60911571
0.63424329
0.67073212
0.59105691
0.67778143
0.64363575
0.66072981
0.56722518
0.5545118
0.53976977
0.51179442
0.52437863
0.53379279
-0.098909942
-0.091415654
-0.08608344
-0.084055324
-0.085728292
-0.086527963
-0.082589309
-0.073423946
-0.096268314
-0.069322834
-0.10435528
-0.02373856
0.035366767
0.13295519
0.35481798
0.29101662
0.5150466
0.59389971
0.45186798
0.71352429
0.62843345
0.60760676
0.66374894
0.70687356
0.5863736
0.71364556
0.67361132
0.70643415
0.56233487
0.5474797
0.53888513
-0.12036436
-0.1149541
-0.10814685
-0.103879
-0.10520965
-0.10914777
-0.1055725
-0.13216663
-0.1400633
-0.11543848
-0.07666644
-0.14272324
-0.03169546
0.030427163
0.054743204
0.14999263
0.40273697
0.25739323
0.53232613
0.64768469
0.58739864
0.49937384
0.7571457
0.64755416
0.63202002
0.68689565
0.73730985
0.60194773
0.7599282
0.73098181
0.74374347
0.57534726
0.56543434
0.55449674
-0.14175269
-0.14069058
-0.13688047
-0.1342579
-0.13815254
-0.14026933
-0.14720381
-0.15726046
-0.16758964
-0.16624327
-0.13242438
-0.18603389
-0.10572601
-0.05004309
0.026438821
0.18500569
0.089527979
0.39357237
0.28997953
0.68736086
0.59997062
0.49405739
0.80480839
0.67568273
0.64184007
0.72367315
0.78712756
0.63199363
0.59304143
0.80282205
0.77108966
0.79334075
0.56513496
-0.16061982
-0.16148794
-0.1568448
-0.15307485
-0.15413457
-0.15959709
-0.16283062
-0.17424679
-0.19755198
-0.1982538
-0.2110451
-0.17861105
-0.16304726
-0.21605586
-0.10907371
-0.033434082
0.038483143
0.16900132
0.11210434
0.34155221
0.44714424
0.24752141
0.7511663
0.66492897
0.55233185
0.85076579
0.69187305
0.67598989
0.74558145
0.81425282
0.64861919
0.60915489
0.85787854
0.82495689
0.83334063
0.58160534
-0.17395117
-0.18162525
-0.17832436
-0.17952241
-0.18404865
-0.19391672
-0.20336623
-0.20135885
-0.22738399
-0.21917761
-0.21952158
-0.25096873
-0.2277761
-0.20745714
-0.25338534
-0.17927938
-0.088081301
-0.0022710244
0.19583987
0.054779087
0.34858637
0.42839156
0.29116993
0.80280666
0.68125093
0.55520217
0.89153279
0.72821116
0.69354604
0.79010745
0.86495954
0.63899867
0.68022805
0.60153831
0.89738125
0.87431308
0.87763549
-0.18707691
-0.20133804
-0.19722428
-0.19795015
-0.20001125
-0.20737443
-0.21529965
-0.22323101
-0.25617741
-0.26022775
-0.25188843
-0.27556541
-0.27994618
-0.27413587
-0.2420036
-0.22722518
-0.27550323
-0.23807366
-0.15923744
-0.066059009
-0.0088412441
0.1631243
0.08999105
0.37313239
0.49720774
0.26584417
0.86489572
0.78226202
0.72080715
0.61918002
0.96694413
0.89821386
0.74667265
0.72956385
0.80778062
0.8773153
0.66058347
0.70128302
0.62586781
0.93872289
0.92788666
0.92855395
-0.17640533
-0.19672154
-0.2093309
-0.21282861
-0.21734083
-0.22240565
-0.23250632
-0.24521044
-0.25026677
-0.27879853
-0.27475807
-0.27122965
-0.32772917
-0.31846691
-0.31060663
-0.29609034
-0.24508811
-0.29824348
-0.31050309
-0.26653095
-0.21295101
-0.11299091
-0.051801324
0.21237292
0.045949941
0.35010116
0.50210476
0.91964521
0.84681154
0.71562005
0.63723703
0.98504547
0.98879346
0.95146043
0.78572652
0.74847972
0.84991852
0.92555646
0.65250741
0.69102178
0.73446689
0.96893825
0.97954755
-0.21649943
-0.22817255
-0.21645922
-0.23726789
-0.23851506
-0.24555661
-0.25657501
-0.2702006
-0.30624095
-0.30271884
-0.29871437
-0.34923573
-0.34318732
-0.34131092
-0.33380507
-0.32801783
-0.31278281
-0.33999155
-0.32819852
-0.30777432
-0.3187335
-0.29292792
-0.18474672
-0.098925832
0.19029062
-0.048607999
0.098543211
0.35159213
0.59089091
0.42811084
0.97825153
0.91010982
0.83498109
0.76357357
1.0401918
1.0446106
0.95935739
0.80207818
0.78365438
0.86185972
0.93141926
0.67772122
0.71377545
0.75444133
1.0153387
1.0279667
-0.23109834
-0.23690508
-0.25186052
-0.24885175
-0.25492922
-0.26638085
-0.28158788
-0.29162671
-0.32356452
-0.32331663
-0.31130423
-0.38180354
-0.37868023
-0.37827413
-0.36686071
-0.3716584
-0.35210771
-0.38670642
-0.35743345
-0.36520417
-0.36446844
-0.34387243
-0.23176012
-0.19145179
0.19836661
-0.072983009
0.073156287
0.27838321
0.59691715
0.44022886
1.0371371
0.96933536
0.89142517
0.73695772
1.0479969
1.087654
1.0914222
1.0469604
1.0064359
0.83844746
0.80043548
0.90168928
0.97208114
0.70672243
0.74434474
0.78544651
1.0873687
-0.24948444
-0.23390332
-0.26340464
-0.25218517
-0.26390801
-0.2768377
-0.28910963
-0.30532035
-0.30268636
-0.34995757
-0.34624124
-0.33820412
-0.40189083
-0.40294952
-0.40379311
-0.38939469
-0.37992098
-0.3956538
-0.42752476
-0.37170286
-0.40012083
-0.40460542
-0.41949097
-0.32598427
-0.23805661
0.14964643
-0.15352255
-0.0082395784
0.28900046
0.51636712
0.65900909
0.36552952
1.0965132
1.0325353
0.95964083
0.87276826
0.79931672
1.1169567
1.140537
1.1501266
1.0961834
1.0077442
0.84898154
0.82982655
0.9061036
0.97108344
0.73260921
0.76655344
0.80823314
1.1365603
-0.25000597
-0.25822996
-0.25240666
-0.27251694
-0.28091544
-0.29105412
-0.30445031
-0.31223094
-0.32943042
-0.36222093
-0.35583715
-0.34539243
-0.35983746
-0.43592912
-0.43140363
-0.44208292
-0.42035417
-0.4079365
-0.44048325
-0.46418882
-0.39845317
-0.4478321
-0.42559992
-0.44159755
-0.45626149
-0.374433
-0.3486565
-0.2284934
0.13757026
-0.18188402
-0.024690775
0.21349825
0.51786746
0.66232803
0.36591849
1.1403375
1.0873059
1.0154051
0.92878913
0.77603381
1.1877884
1.2029499
1.1424052
1.090008
1.0487519
0.88213402
0.83912543
0.93987737
1.0056663
0.76028895
0.79639413
0.82985211
1.2047147
-0.23634575
-0.26373414
-0.26397655
-0.27819475
-0.27861202
-0.30590951
-0.31274722
-0.31986656
-0.34717258
-0.38781835
-0.38047228
-0.35793647
-0.36885151
-0.46033883
-0.45486493
-0.44552927
-0.46711077
-0.43211506
-0.41972221
-0.47623272
-0.50254912
-0.40541746
-0.47953467
-0.48388868
-0.48383157
-0.51941486
-0.47158182
-0.45858103
-0.39301971
-0.2995965
0.048475079
-0.12677498
-0.27261072
0.20375738
0.58360874
0.44239634
0.7010159
0.28291625
1.1749674
1.1403331
1.0798586
0.99956764
0.90485342
0.8261762
1.2084458
1.2290233
1.2418732
1.1829535
1.1274799
1.0430821
0.88773519
0.8683699
0.93788897
0.99586302
0.78266434
0.8121757
0.84559584
1.2304655
-0.26517563
-0.27675661
-0.27964922
-0.28136056
-0.30195958
-0.30927854
-0.32384023
-0.33436914
-0.35649687
-0.396657
-0.3972221
-0.37109585
-0.37589015
-0.49218784
-0.48285283
-0.47448673
-0.49820613
-0.45942054
-0.44503149
-0.5134978
-0.52399116
-0.52729461
-0.42824398
-0.52466104
-0.51564374
-0.5192576
-0.54234973
-0.54450805
-0.49050314
-0.47970215
-0.38189903
0.035693997
-0.13598656
-0.31988439
0.10774054
0.59623063
0.44440699
0.67940635
0.27602733
1.246745
1.2024139
1.1367459
1.0580531
0.95979454
0.79289212
1.2832527
1.2922315
1.2316887
1.2888554
1.1717568
1.1224473
1.0805817
0.91340205
0.86842325
0.96465929
1.0218086
0.80511106
0.83461508
0.84969974
1.2550788
-0.26008307
-0.28131036
-0.28157801
-0.28290846
-0.29493781
-0.31901709
-0.30002312
-0.3185999
-0.33564178
-0.3724142
-0.41461196
-0.40624522
-0.37803456
-0.39067122
-0.50949378
-0.51306304
-0.49842813
-0.48365583
-0.47417051
-0.43957195
-0.54453239
-0.54750183
-0.55076546
-0.43170655
-0.55504836
-0.57223652
-0.56259701
-0.59167797
-0.56694541
-0.5751506
-0.5091278
-0.42040205
-0.061778282
-0.22627063
-0.32066803
-0.40820829
0.094398282
0.53003822
0.35925743
0.70619522
0.17224537
1.2530282
1.2032143
1.1214949
1.0393949
0.92860552
0.84002155
1.3143645
1.3265361
1.2691925
1.3234429
1.2039413
1.1457104
1.0616488
0.90793435
0.88605542
0.95465598
1.0039358
0.81862446
0.83705153
0.87118721
1.2897372
-0.26733154
-0.28567883
-0.2857441
-0.29331881
-0.29526176
-0.30132738
-0.32494723
-0.33827114
-0.35731173
-0.37871116
-0.42189731
-0.41130266
-0.36375134
-0.4037551
-0.53674896
-0.54180946
-0.52461259
-0.50681584
-0.49182294
-0.47348441
-0.57564859
-0.5648103
-0.5680168
-0.45341172
-0.58831676
-0.59469542
-0.5840522
-0.6201347
-0.62899349
-0.59496078
-0.56546288
-0.50967055
-0.075528174
-0.22561617
-0.35020234
-0.45694135
-0.013380183
0.535767
0.35815369
0.63819995
0.16360591
1.3094482
1.2457503
1.1741854
1.0964272
0.98303366
0.78463677
1.3503723
1.3138886
1.362809
1.3181591
1.2492708
1.3351874
1.363523
1.186488
1.14768
1.084723
0.92871696
0.89217353
0.97225104
1.0203363
0.83083627
0.84775805
0.8649548
1.3315401
-0.26728328
-0.26950613
-0.26329807
-0.29085609
-0.29904924
-0.30111585
-0.32782391
-0.33162376
-0.34969225
-0.36250258
-0.36284549
-0.43767033
-0.42500177
-0.40963484
-0.41332831
-0.55808233
-0.55952294
-0.51874579
-0.51141056
-0.48982737
-0.47586256
-0.48216032
-0.60937451
-0.59320965
-0.59388455
-0.45493345
-0.63387638
-0.62301095
-0.60188117
-0.65502061
-0.66606981
-0.62678356
-0.61237832
-0.53073529
-0.15352976
-0.27127951
-0.39339964
-0.32695693
-0.4542363
-0.51184242
-0.013590308
0.45702787
0.24018222
0.68349134
0.063234671
1.3226826
1.2872897
1.2239109
1.1612476
1.0775179
0.94191797
0.84977054
1.3716441
1.3685619
1.3859527
1.3994024
1.3353278
1.2732036
1.3744046
1.3984171
1.2151047
1.126212
1.1834874
1.0571073
0.90758655
0.95085197
0.99550954
0.8333468
0.83862466
0.87637111
1.3836069
-0.27023526
-0.29336546
-0.28434161
-0.30127488
-0.30523589
-0.3075982
-0.32773121
-0.34052451
-0.35835506
-0.37214216
-0.39615198
-0.43986336
-0.42381002
-0.42814407
-0.40421167
-0.57661112
-0.58134375
-0.55775833
-0.53873911
-0.51932156
-0.46714866
-0.50249766
-0.61946136
-0.62851605
-0.61179762
-0.60615777
-0.46324051
-0.64844273
-0.65048093
-0.65005718
-0.6385461
-0.68202281
-0.62755046
-0.66490376
-0.6430753
-0.6518886
-0.61715392
-0.56075823
-0.18719878
-0.25984231
-0.43241457
-0.36263113
-0.47465185
-0.53590547
-0.10386774
0.45912984
0.25228398
0.62127683
0.053950755
1.3834046
1.3217355
1.2928596
1.2316373
1.1129712
0.98446639
0.82499616
1.4217756
1.4099411
1.4072235
1.4488654
1.3135645
1.3774595
1.2511935
1.3985424
1.4336855
1.1307143
1.1965875
1.0671827
0.91820268
0.96123868
1.004163
0.83231524
0.83874218
0.9020092
0.85552002
1.4063176
-0.26535391
-0.2796886
-0.29398626
-0.28260862
-0.30462102
-0.31021286
-0.32171778
-0.33632426
-0.34894972
-0.36361715
-0.38445962
-0.3904186
-0.45182766
-0.44102549
-0.40509502
-0.4286681
-0.57706658
-0.59395673
-0.56720017
-0.56304447
-0.53781245
-0.52470788
-0.47539572
-0.51491984
-0.63662676
-0.63358284
-0.63173195
-0.6254285
-0.46717227
-0.65422865
-0.66811335
-0.66994687
-0.66285853
-0.69306182
-0.68353044
-0.69828419
-0.6634515
-0.66696767
-0.65480232
-0.60860442
-0.57883216
-0.17305376
-0.29562523
-0.47514368
-0.41310267
-0.34968752
-0.51199335
-0.58407505
-0.08954977
0.50697045
0.33873872
0.15374314
0.65774221
-0.048227549
0.11013612
1.4063481
1.3731209
1.2903688
1.2269651
1.0501697
1.164683
0.95172903
0.72271549
0.86783797
1.4510274
1.4439383
1.4555354
1.4777079
1.3304088
1.3973059
1.2658864
1.4407085
1.4610327
1.1680014
1.1033429
1.2359402
1.039705
0.93742605
0.97964302
0.81860843
0.81620184
0.90695457
0.85541606
1.4585892
-0.26876348
-0.28157024
-0.29655807
-0.28909727
-0.30802239
-0.32162608
-0.3256015
-0.34217173
-0.35805039
-0.37522117
-0.40376143
-0.41375127
-0.45162617
-0.43836461
-0.43789821
-0.60561824
-0.6142167
-0.59048368
-0.55108348
-0.54957233
-0.53666787
-0.48911475
-0.51281523
-0.647613
-0.66327767
-0.63579052
-0.64397597
-0.48100318
-0.66799794
-0.69538053
-0.71424036
-0.67476842
-0.69698135
-0.72575958
-0.71673472
-0.70795875
-0.7085859
-0.70984528
-0.61440892
-0.64348346
-0.60556076
-0.22118142
-0.2706084
-0.48962939
-0.43278711
-0.37146554
-0.53116161
-0.5792211
-0.15751709
0.44939102
0.37729079
0.18292947
0.59222023
-0.015383018
-0.00021229451
1.4641896
1.3870891
1.3539746
1.2962107
1.1203204
1.1798693
0.97951664
0.7662277
0.83141355
1.4924054
1.4821455
1.4770264
1.5087793
1.3033048
1.3711173
1.4382959
1.4625658
1.4985417
1.1756873
1.1093083
1.2447145
1.0460735
0.94513727
0.98394857
0.80579213
0.80635199
0.88056638
0.82611709
1.4844862
-0.27832861
-0.28698245
-0.29809131
-0.29341631
-0.32354666
-0.32613767
-0.33612627
-0.34913825
-0.36598384
-0.38932588
-0.42151961
-0.4100733
-0.46553968
-0.44923971
-0.43677132
-0.62097465
-0.61252892
-0.60035017
-0.5602707
-0.54996725
-0.53571261
-0.49294658
-0.52318595
-0.66612529
-0.66997667
-0.67000143
-0.65645502
-0.47745078
-0.6977259
-0.70334672
-0.71067713
-0.67304719
-0.7202018
-0.70973739
-0.72511825
-0.6844724
-0.73370929
-0.70120561
-0.70280193
-0.65845667
-0.68172764
-0.65412397
-0.21114111
-0.29858694
-0.45034937
-0.51840325
-0.42921745
-0.34841054
-0.55084299
-0.56910982
-0.13583489
0.48990216
0.29278608
0.14945704
0.63626033
-0.076188203
-0.0021752872
1.4871105
1.447321
1.3578455
1.2968633
1.1009444
1.2320254
1.0320728
0.9245721
0.70282024
0.86932875
1.5301651
1.5128621
1.5207286
1.5288935
1.5316025
1.3148044
1.3846494
1.4542931
1.5028244
1.5246394
1.1437499
1.2120803
1.079538
1.2820555
1.0181285
0.91346279
0.96888251
0.7803225
0.77476786
0.88240326
0.82111352
1.5360857
-0.27686658
-0.28724991
-0.30713996
-0.29893894
-0.33058419
-0.34300844
-0.34228301
-0.35432494
-0.36980084
-0.38503352
-0.39782892
-0.39351789
-0.42959903
-0.4609828
-0.44723311
-0.63358797
-0.64807472
-0.60032461
-0.57610781
-0.56408004
-0.54697176
-0.50188177
-0.52928479
-0.66969075
-0.65157852
-0.68822387
-0.66271105
-0.63357978
-0.48856534
-0.70147884
-0.68661517
-0.72001662
-0.71342928
-0.73002574
-0.70490644
-0.74937872
-0.69950196
-0.759507
-0.72316224
-0.68092926
-0.71679014
-0.6579626
-0.6659373
-0.70016796
-0.65290062
-0.23984135
-0.27952946
-0.49939168
-0.54110905
-0.41413591
-0.35571044
-0.57864089
-0.61660249
-0.17113787
0.46667676
0.3283519
0.10278949
0.2087007
0.58025489
-0.098664153
-0.0027462417
1.5148031
1.4738525
1.3997476
1.3524272
1.1528995
1.2235649
1.0304197
0.97393365
0.7476643
0.82974083
1.5608272
1.551482
1.5485154
1.5765398
1.5674636
1.353198
1.4240499
1.4941042
1.5225711
1.5639188
1.1454513
1.2150431
1.0811359
1.2869063
1.0237252
0.91214964
0.98864161
0.94472253
0.76119313
0.75815302
0.84968861
0.79559665
1.5649765
-0.26585589
-0.2802553
-0.29008164
-0.313374
-0.29919044
-0.31210018
-0.3157489
-0.34896512
-0.34591841
-0.36054291
-0.3780399
-0.39323339
-0.41829861
-0.42308724
-0.44259955
-0.47141391
-0.45596028
-0.60471986
-0.63563993
-0.66600067
-0.62250135
-0.56561701
-0.55448276
-0.53748721
-0.49423274
-0.53388698
-0.70131274
-0.6951651
-0.67588268
-0.67960623
-0.66948539
-0.4805423
-0.72390856
-0.72941912
-0.72866075
-0.72629414
-0.71266748
-0.72111102
-0.74543235
-0.74219642
-0.73331291
-0.71266679
-0.72791348
-0.74869053
-0.69127799
-0.74080905
-0.65802938
-0.67204462
-0.70109408
-0.61532959
-0.22548014
-0.29346263
-0.49111253
-0.52921649
-0.57595871
-0.41609875
-0.36370119
-0.34878486
-0.58110755
-0.62259632
-0.14953623
0.35851797
0.51079556
0.25166114
0.042719709
0.15330512
0.5999592
-0.0020632609
-0.14734507
-0.00022114867
1.5441671
1.5207461
1.4366155
1.500168
1.3957205
1.340527
1.1329946
1.2741875
1.0735427
0.93440083
0.73117037
0.8803985
1.5965671
1.5808653
1.5910044
1.5988781
1.6017334
1.359923
1.4329074
1.5057735
1.5625309
1.5883277
1.1101597
1.1785574
1.250035
1.0488999
1.3231768
0.88685787
0.98240914
0.93139941
0.72296743
0.72478185
0.76938086
0.84201714
0.80307768
1.6070544
-0.27705551
-0.27786257
-0.28535633
-0.29452259
-0.31208174
-0.30709942
-0.32506321
-0.32036757
-0.33447761
-0.33319471
-0.34953047
-0.36624556
-0.38354324
-0.40163042
-0.43191477
-0.44081524
-0.45078061
-0.46575984
-0.62920308
-0.63793133
-0.65209189
-0.65067043
-0.59135673
-0.59798493
-0.57403499
-0.55951465
-0.52110098
-0.51063341
-0.70065543
-0.70239394
-0.68030575
-0.67619241
-0.67662371
-0.49445884
-0.72766715
-0.70893804
-0.73598783
-0.74839634
-0.71809828
-0.74645409
-0.77808051
-0.75306685
-0.76097976
-0.73952646
-0.7461997
-0.68243746
-0.72229541
-0.74675562
-0.70168787
-0.72419948
-0.62975618
-0.66656679
-0.68449961
-0.70245679
-0.24575024
-0.28162504
-0.49471216
-0.526785
-0.55427481
-0.43534934
-0.41317426
-0.31983953
-0.62877178
-0.63992557
-0.17550112
0.41316576
0.45327471
0.24669992
0.066130649
0.13454166
0.67982364
0.56698083
-0.10124564
-0.091981358
0.026903653
1.5741527
1.5690599
1.502585
1.5158041
1.4539177
1.3853307
1.1768027
1.260808
1.0542468
0.96655218
0.77829492
0.8491303
1.6269715
1.6182706
1.6159126
1.6353916
1.635997
1.3969436
1.4706572
1.5441767
1.5786505
1.6279051
1.1054149
1.1751986
1.2480363
1.0421986
1.3225805
0.89464369
0.85973987
1.0050103
0.94978378
0.70735681
0.70315988
0.74263618
0.78453233
1.6329427
-0.26801556
-0.2732025
-0.28103578
-0.29014719
-0.30403499
-0.31962212
-0.30550904
-0.32165213
-0.34221644
-0.34127008
-0.35301155
-0.35345887
-0.36888432
-0.39895737
-0.41848758
-0.44305254
-0.44350844
-0.45903569
-0.47636079
-0.62033769
-0.64445994
-0.64322967
-0.65125865
-0.61923611
-0.62134316
-0.58704167
-0.56624388
-0.5491917
-0.50802811
-0.53596752
-0.54334806
-0.71214256
-0.70652001
-0.69663022
-0.69041446
-0.6813294
-0.48598185
-0.74340763
-0.71789501
-0.74219294
-0.7469399
-0.71764436
-0.75159029
-0.74388111
-0.74942708
-0.77374781
-0.75850658
-0.72309329
-0.74623027
-0.7596115
-0.70460374
-0.68851391
-0.64890768
-0.67905767
-0.69405269
-0.71428256
-0.242327
-0.27396625
-0.52571423
-0.519873
-0.55678696
-0.52127079
-0.40506633
-0.43994476
-0.4282006
-0.28249096
-0.31937768
-0.64993934
-0.65564711
-0.64896629
-0.22579118
0.41178303
0.49352033
0.26301004
0.36610083
0.081217351
0.28789607
0.12047949
0.63634284
0.63147095
-0.092456615
-0.094817876
-0.040442851
0.11208746
1.6049773
1.5797692
1.5024003
1.5574012
1.4739592
1.4327339
1.3857204
1.1823415
1.2820253
1.0683874
0.99362752
0.75483318
0.88904926
1.6616416
1.6492529
1.6573905
1.6624097
1.6706258
1.3978159
1.4731569
1.5488741
1.6176382
1.6505789
1.1355163
1.0675188
1.2075604
1.281896
1.3572955
0.87883854
0.83176096
0.99241733
0.93429833
0.67991555
0.67340281
0.71079199
0.75313958
0.79651668
1.6513707
-0.27372637
-0.28095099
-0.28807422
-0.29532253
-0.29542307
-0.31940187
-0.30999691
-0.33059766
-0.34288114
-0.33979791
-0.35694815
-0.36402511
-0.38259851
-0.39570563
-0.41452624
-0.42265438
-0.42311076
-0.44881406
-0.46794718
-0.61862284
-0.65050121
-0.65746735
-0.66782013
-0.59444262
-0.6207619
-0.5876997
-0.57486173
-0.55915718
-0.50998077
-0.51683178
-0.54367139
-0.71507492
-0.70753365
-0.69455525
-0.68983039
-0.67822287
-0.49285452
-0.7458517
-0.73244687
-0.75627737
-0.75287534
-0.73022931
-0.76248811
-0.76585148
-0.7436097
-0.77740929
-0.75561265
-0.75305158
-0.7812421
-0.74970988
-0.7398415
-0.72670019
-0.77278238
-0.74279595
-0.64222037
-0.70197198
-0.6998648
-0.71563478
-0.24050538
-0.24103905
-0.46915656
-0.50237805
-0.54228858
-0.6251624
-0.51377718
-0.409772
-0.37102096
-0.38999282
-0.31448295
-0.58239424
-0.61203302
-0.65132475
-0.21131504
-0.1132557
0.41898943
0.51130568
0.2361195
0.31064675
0.10244259
0.17793165
0.12723152
0.68894637
0.58685447
-0.031712342
-0.15941104
-0.00074389591
0.020812089
1.6246929
1.6096538
1.5257079
1.5768668
1.5023354
1.4697582
1.3284267
1.4232944
1.1334876
1.2164107
1.2598386
1.0627806
0.93574908
1.0345857
0.80382049
0.86591816
1.6909385
1.6851081
1.6870348
1.6928625
1.7015822
1.4329762
1.5086169
1.5850145
1.6267025
1.6871707
1.1265194
1.0572615
1.1995696
1.27482
1.3510143
0.89651939
0.84487785
1.0159787
0.95374965
0.6612244
0.64622025
0.68637648
0.72870918
0.77370734
1.6614873
1.6732152
-0.2700974
-0.27700619
-0.28473124
-0.29195213
-0.30081319
-0.3056272
-0.32860706
-0.31327636
-0.3343277
-0.35166122
-0.34993401
-0.35799679
-0.37120604
-0.39621634
-0.3762131
-0.40379445
-0.41834113
-0.44786176
-0.44718468
-0.4630456
-0.47800192
-0.63082189
-0.64348021
-0.6531949
-0.66252484
-0.59240687
-0.6237907
-0.58305977
-0.56609222
-0.55276711
-0.50377126
-0.51335024
-0.54658644
-0.72442037
-0.71638565
-0.70562165
-0.69789516
-0.68563881
-0.48556453
-0.74953827
-0.7245236
-0.74788456
-0.75008216
-0.72862734
-0.74992616
-0.75526767
-0.77631339
-0.76876349
-0.74593059
-0.74164234
-0.7586807
-0.7811027
-0.71041845
-0.71910047
-0.73185937
-0.67345778
-0.69153697
-0.71630018
-0.73341376
-0.24496095
-0.26116533
-0.48921721
-0.5023058
-0.50326073
-0.51499504
-0.65060293
-0.58841114
-0.53506195
-0.3850194
-0.38156178
-0.38249102
-0.42146594
-0.3074628
-0.29180145
-0.58724383
-0.57442957
-0.66369593
-0.62395711
-0.19394502
-0.16745495
0.48555471
0.37926575
0.54911556
0.29713822
0.34056448
0.13278155
0.085183748
0.20816944
0.69804984
0.54874542
-0.063502163
-0.071124435
-0.086938954
0.087575855
-0.05954854
1.6490285
1.624094
1.5549818
1.52765
1.6049832
1.5261053
1.4576427
1.4924963
1.3556178
1.426215
1.1227992
1.2066944
1.2825829
1.0950801
0.98109321
0.99871509
0.81817858
0.93130319
1.7281297
1.6928325
1.7170414
1.7183074
1.7189486
1.427252
1.5030028
1.5789479
1.6611222
1.6961237
1.6796133
1.1555891
1.0838018
1.2302805
1.3064245
1.3829103
0.87713202
0.82344057
0.99955215
0.93590457
0.62186644
0.62094612
0.65265126
0.69590804
0.74001289
0.7864295
1.6992353
1.6977691
-0.27039263
-0.2774529
-0.2847381
-0.29147432
-0.29963424
-0.3099947
-0.32518962
-0.3226555
-0.34128033
-0.35226986
-0.34482531
-0.36233102
-0.36835557
-0.37939946
-0.39919435
-0.41402839
-0.42562781
-0.4506668
-0.45350063
-0.47018496
-0.62798716
-0.65126692
-0.66057692
-0.67311415
-0.60165892
-0.61754642
-0.59280352
-0.57625155
-0.56050407
-0.51242353
-0.52328291
-0.53844301
-0.73407363
-0.70483868
-0.70237653
-0.70345113
-0.67344882
-0.49420441
-0.74526176
-0.75564753
-0.72161249
-0.76781261
-0.74007139
-0.78295048
-0.72679872
-0.77325381
-0.7976761
-0.74004602
-0.79451489
-0.72312637
-0.70561687
-0.73230049
-0.7783169
-0.78100679
-0.8089197
-0.75355372
-0.75289132
-0.71118299
-0.67789082
-0.64716328
-0.72553709
-0.67679144
-0.75670137
-0.70971221
-0.19797648
-0.31348962
-0.46360501
-0.47441814
-0.55308792
-0.58996254
-0.54694022
-0.60082158
-0.4550368
-0.48549067
-0.3753269
-0.35457794
-0.34077308
-0.30883151
-0.34921816
-0.62228058
-0.65087453
-0.63010728
-0.66910156
-0.14949324
-0.23332143
0.48510722
0.37126013
0.55028535
0.33274254
0.30654846
0.36041839
0.055111922
0.0042141232
0.27004325
0.19104639
0.25906838
0.076113855
0.68621934
0.72621063
0.62648559
-0.13274147
0.038589464
0.043069812
-0.12206954
-0.14027176
-0.093723028
0.11437975
1.6643725
1.6504127
1.5693377
1.5626894
1.6183305
1.5469316
1.4918611
1.5349176
1.3788761
1.3351968
1.4366778
1.1571028
1.2405092
1.2804877
1.0801371
0.96258439
1.0379773
0.80404427
0.7924067
0.95103613
1.7313056
1.735297
1.7249383
1.7424077
1.7457804
1.7428127
1.4590304
1.5340736
1.6107851
1.6431598
1.6785656
1.722881
1.7144947
1.1408352
1.0682833
1.2161926
1.292769
1.3693567
0.83835343
0.89437581
1.0225107
0.95601559
0.59828561
0.5906624
0.63486164
0.67500558
0.71606927
0.76220552
1.7082194
1.722434
-0.27320673
-0.28216602
-0.28729118
-0.29682518
-0.30344714
-0.30783769
-0.32990433
-0.31615454
-0.31465965
-0.33973349
-0.33519417
-0.35475496
-0.36599035
-0.36251135
-0.37465753
-0.39239282
-0.40446912
-0.41558381
-0.44591778
-0.45626512
-0.4616006
-0.47969784
-0.63550952
-0.64339904
-0.65481723
-0.66705875
-0.59839833
-0.62379683
-0.58334227
-0.56760002
-0.55253102
-0.50452644
-0.51845458
-0.54493309
-0.73198159
-0.73409858
-0.71429374
-0.70319
-0.70131707
-0.48643905
-0.7669846
-0.74792769
-0.77503722
-0.76860282
-0.76942838
-0.73181909
-0.78334461
-0.78750305
-0.76765287
-0.76404821
-0.80321379
-0.79231611
-0.78771291
-0.75380141
-0.77018174
-0.77481754
-0.75090798
-0.77050575
-0.75916783
-0.78998819
-0.75315937
-0.75472007
-0.65633362
-0.68574021
-0.70905243
-0.69158579
-0.71944396
-0.72199298
-0.75058444
-0.20950592
-0.23957667
-0.18920062
-0.470899
-0.47044361
-0.38909375
-0.63864134
-0.57246891
-0.55728074
-0.44772415
-0.68342066
-0.64259868
-0.47838913
-0.56692482
-0.29632534
-0.34684214
-0.3538482
-0.35534384
-0.42170164
-0.34381504
-0.62801298
-0.63817446
-0.64848992
-0.66463755
-0.28662789
-0.079881182
0.48683094
0.4861245
0.43459055
0.52173654
0.19510667
0.36165803
0.28320405
0.72479959
0.63626382
0.61687166
0.62937288
-0.25511797
1.6933952
1.661849
1.5963923
1.568905
1.6445741
1.5486758
1.5288869
1.5086708
1.3909938
1.3311869
1.4828427
1.4462253
1.1608229
1.2435366
1.3043775
1.1227425
0.98165146
1.0199449
0.83430756
0.89623525
0.77977291
0.86601809
1.7546396
1.761684
1.747521
1.7545001
1.7738296
1.7727183
1.4448352
1.5177482
1.5886332
1.6370583
1.678161
1.6981286
1.72897
1.7282595
1.093527
1.1679366
1.2443532
1.3213254
1.3976771
0.8145285
0.87164017
1.0008331
0.93398853
0.56765229
0.56700752
0.59012759
0.60701475
0.64785454
0.68351897
0.72608846
0.77477667
1.7321753
1.740231
-0.27350005
-0.28203458
-0.287331
-0.29581504
-0.30371092
-0.31364965
-0.32934352
-0.3221307
-0.31703797
-0.35595576
-0.34328223
-0.37491658
-0.37206161
-0.37743867
-0.39423702
-0.41013373
-0.42764633
-0.44844011
-0.46019506
-0.47185612
-0.6303129
-0.65149402
-0.6641525
-0.68019479
-0.6052942
-0.62396352
-0.59196387
-0.57549061
-0.56002431
-0.5126822
-0.52621215
-0.53780731
-0.70265725
-0.75110437
-0.72347201
-0.70490462
-0.67495626
-0.71675405
-0.6906533
-0.49430077
-0.76478001
-0.74845646
-0.74512709
-0.7620817
-0.7746664
-0.74832225
-0.78128782
-0.77927137