/*--------------------------------*- C++ -*----------------------------------*\
| =========                 |                                                 |
| \\      /  F ield         | OpenFOAM: The Open Source CFD Toolbox           |
|  \\    /   O peration     | Version:  2112                                  |
|   \\  /    A nd           | Website:  www.openfoam.com                      |
|    \\/     M anipulation  |                                                 |
\*---------------------------------------------------------------------------*/
FoamFile
{
    version     2.0;
    format      ascii;
    arch        "LSB;label=32;scalar=64";
    class       volVectorField;
    location    "0.335";
    object      U_0;
}
// * * * * * * * * * * * * * * * * * * * * * * * * * * * * * * * * * * * * * //

dimensions      [0 1 -1 0 0 0 0];

internalField   nonuniform List<vector> 
8100
(
(0.77448569 0.019260399 -3.9642389e-20)
(0.84453192 0.035717108 -5.8157888e-20)
(0.98886964 0.064749979 1.2457742e-20)
(0.71178813 0.029229746 -5.2453505e-20)
(1.0983182 0.07206981 0)
(1.014977 0.08847619 0)
(0.45821924 0.0091592125 1.5418811e-19)
(0.77262776 0.046491821 2.6826079e-19)
(1.2128016 0.10349343 -5.039146e-20)
(1.1243411 0.12231904 0)
(0.91147925 0.080006649 1.4130611e-20)
(0.27874556 0.0035521487 -4.8022136e-20)
(0.25257149 0.0054063365 -1.5956579e-19)
(0.64661289 0.035527194 -2.8591646e-19)
(1.2755919 0.10343684 0)
(1.2174518 0.12683313 2.82135e-20)
(1.144154 0.149374 0)
(0.9379278 0.10251549 -1.2201669e-19)
(0.41583145 0.012118588 5.6972184e-20)
(0.70024879 0.053650699 6.1169687e-20)
(1.3605298 0.13157163 0)
(1.3134829 0.1587143 3.3771239e-20)
(1.2413312 0.18263118 0)
(1.0570037 0.1417521 0)
(0.83162944 0.089669256 1.2069331e-19)
(0.22464768 0.0069307874 -6.0694227e-20)
(0.57834171 0.039915206 4.0174692e-21)
(1.3785988 0.14497542 0)
(1.3162226 0.18264672 0)
(1.3700017 0.15981142 0)
(1.2590667 0.20381803 0)
(1.0673087 0.16546675 2.9180621e-20)
(0.85448327 0.11110872 0)
(0.36978517 0.014576288 -7.1471268e-20)
(0.62614479 0.058238868 -1.3494603e-19)
(1.4555547 0.15631346 7.8612233e-20)
(1.3884394 0.2059154 5.3980525e-20)
(1.4372702 0.18473323 0)
(1.3489779 0.22819469 0)
(1.2398934 0.21689996 0)
(1.1672819 0.20291738 3.2345277e-20)
(0.96230355 0.14799991 -6.7290062e-20)
(0.75129954 0.093689098 -4.326346e-21)
(0.19373078 0.0079656217 1.276261e-19)
(0.50947076 0.041416214 1.3757837e-19)
(1.4922782 0.15060189 -1.0692929e-19)
(1.4804509 0.17696342 -4.3513808e-20)
(1.3936493 0.22756807 -6.5708988e-20)
(1.4386397 0.21066636 9.6650368e-21)
(1.4500786 0.19728997 -3.0445422e-20)
(1.3664747 0.25318785 0)
(1.312052 0.25314751 0)
(1.164491 0.22913714 7.5281235e-20)
(0.97554407 0.16882517 7.1516065e-20)
(0.77412242 0.11281524 -1.5053015e-19)
(0.32114601 0.015727645 -1.0839338e-21)
(0.55506519 0.059115462 1.478189e-19)
(1.550128 0.1642222 -5.3344348e-20)
(1.5311439 0.18777414 3.7046213e-20)
(1.4569569 0.25285969 -2.131238e-19)
(1.4913309 0.23531081 0)
(1.5155461 0.21153015 2.6003677e-20)
(1.4222144 0.27271173 -2.8327961e-21)
(1.3197721 0.26459244 -2.0596132e-20)
(1.2432698 0.26161893 5.7899932e-21)
(1.0753237 0.20809553 -1.3752695e-19)
(0.87967373 0.14853037 0)
(0.67661277 0.093534328 1.4897625e-19)
(0.16332286 0.0082827348 0)
(0.44496104 0.040662494 -1.4397583e-19)
(1.5684078 0.18204083 4.0820122e-21)
(1.5494966 0.20699444 -3.9879499e-20)
(1.4686984 0.27212099 8.8951747e-20)
(1.498655 0.24950781 7.9326004e-20)
(1.5327771 0.23153839 0)
(1.4339594 0.29415049 8.2380511e-20)
(1.3018144 0.27573423 1.4944421e-19)
(1.3912001 0.29112284 8.0247806e-20)
(1.2417158 0.27625014 -1.5782009e-19)
(1.0755856 0.22551102 -8.3842026e-20)
(0.89456011 0.16599873 -5.1384219e-21)
(0.70259007 0.11031863 -4.972005e-21)
(0.2740753 0.015622335 0)
(0.49115124 0.05721983 -6.7503022e-20)
(1.6231317 0.19653435 -4.2224073e-21)
(1.6023486 0.22156793 0)
(1.5320869 0.29815648 -7.6373425e-20)
(1.5561957 0.27111714 7.3904256e-20)
(1.5808027 0.24554246 -3.9664038e-20)
(1.48921 0.31871941 -3.7879355e-21)
(1.3530312 0.30597458 1.3546174e-19)
(1.4007252 0.31239791 -5.4436192e-20)
(1.2145405 0.27848052 0)
(1.3102653 0.30922199 5.433042e-20)
(1.1496321 0.25507807 5.2591754e-20)
(0.98605012 0.19950825 9.3062143e-20)
(0.80799036 0.14332651 -7.8619284e-20)
(0.61180508 0.089786167 -9.8142322e-21)
(0.13556493 0.0079758212 0)
(0.38874916 0.038457359 7.8115783e-20)
(1.6619225 0.19010765 0)
(1.6389245 0.21561492 0)
(1.6183357 0.24007706 0)
(1.5729284 0.29386194 2.2855215e-21)
(1.5397066 0.31971064 -7.2526779e-20)
(1.5957728 0.26595443 2.894189e-20)
(1.4964129 0.33856486 3.9835324e-20)
(1.354425 0.31727405 -9.4319516e-20)
(1.4484727 0.33452082 4.4907296e-20)
(1.2633535 0.3126449 -1.0216735e-19)
(1.3135203 0.32639656 -5.495892e-20)
(1.1404584 0.26835619 -6.0916951e-20)
(0.99686346 0.21301187 0)
(0.82979341 0.15767955 -1.5179247e-21)
(0.64387607 0.10435904 -2.0417838e-20)
(0.231822 0.014593346 -4.5956886e-21)
(0.43744708 0.053528023 0)
(1.7132775 0.20307171 0)
(1.6897468 0.22871666 -2.9759278e-20)
(1.6682138 0.25476199 0)
(1.6289336 0.31210671 0)
(1.5928521 0.34240659 4.3843862e-21)
(1.648283 0.28209246 4.2336415e-20)
(1.5459185 0.36455961 8.0821721e-20)
(1.4054954 0.34623808 1.9211171e-19)
(1.4522967 0.35410442 -9.6311096e-20)
(1.259371 0.31970694 8.2035712e-20)
(1.3593938 0.35150308 9.8453123e-20)
(1.0771457 0.24528178 1.1226827e-19)
(1.205186 0.30099026 0)
(0.92316226 0.18964691 0)
(0.7521972 0.13533264 -6.6063269e-20)
(0.55994919 0.083761064 0)
(0.11173211 0.0071914674 0)
(0.34379696 0.035477925 0)
(1.7252444 0.22183403 0)
(1.703088 0.24781911 3.0981031e-20)
(1.6826938 0.2745986 -3.5086736e-20)
(1.6641155 0.30280972 0)
(1.6461723 0.33111741 1.8539835e-20)
(1.6349661 0.34644987 0)
(1.5923373 0.36774931 0)
(1.5475798 0.3865088 -3.8278377e-20)
(1.4069142 0.36242687 -9.4060057e-20)
(1.5003718 0.3813655 -4.2038504e-20)
(1.3106978 0.35110798 8.6353653e-20)
(1.35931 0.36712362 -1.8841378e-19)
(1.0847354 0.25556435 -1.1666556e-19)
(1.2068275 0.31020043 0)
(0.94302835 0.20083512 1.005201e-19)
(0.78238909 0.14706072 1.767628e-19)
(0.60004977 0.096377134 6.1159785e-20)
(0.19653038 0.013214491 7.2376311e-20)
(0.39687721 0.048766049 0)
(1.7711389 0.2344754 0)
(1.7490042 0.26078333 0)
(1.7290423 0.28812231 2.7773541e-20)
(1.7115299 0.31632901 -3.0679474e-20)
(1.6994507 0.34548667 -6.5381086e-20)
(1.6782667 0.37391016 -2.5393592e-21)
(1.6404153 0.39441775 0)
(1.5955563 0.41520669 3.5852856e-20)
(1.453329 0.39254946 0)
(1.5011764 0.40152046 0)
(1.3105311 0.36277277 -4.2937514e-20)
(1.4047676 0.39768094 0)
(1.0281149 0.23309035 -1.1038196e-19)
(1.1554899 0.28911711 0)
(1.2639871 0.34394541 8.1953619e-20)
(0.87927536 0.17745276 -9.3490995e-20)
(0.71326317 0.12492116 2.1242857e-20)
(0.52391526 0.076501026 -7.7053474e-20)
(0.092547711 0.0060221066 -6.7589448e-20)
(0.31236566 0.032297434 -1.7616451e-20)
(1.8049378 0.22711327 1.8452374e-20)
(1.7821564 0.25314364 0)
(1.7613298 0.28013457 -2.8529569e-20)
(1.7424991 0.30805049 2.4923287e-20)
(1.7269867 0.33771174 -1.4763341e-20)
(1.7142313 0.36794469 1.6597872e-20)
(1.6825531 0.39089193 3.4275758e-20)
(1.6423923 0.41682055 -4.4910485e-20)
(1.5953577 0.4379376 0)
(1.4525207 0.41081097 0)
(1.5477238 0.43237504 0)
(1.3571653 0.39606696 2.270162e-19)
(1.4036186 0.4135305 -9.6236042e-20)
(1.0470978 0.24161514 -2.3009931e-21)
(1.1655988 0.29775181 0)
(1.2680438 0.35415325 -3.996201e-20)
(0.90797297 0.18604021 0)
(0.75274935 0.13403135 0)
(0.57336813 0.08700388 0)
(0.16943744 0.011267733 1.7065362e-20)
(0.37170431 0.043853793 0)
(1.8474702 0.23863805 3.0931952e-20)
(1.8253559 0.26512418 1.8165772e-20)
(1.8053929 0.29273177 0)
(1.787302 0.32170467 7.0962791e-21)
(1.7715974 0.35211651 2.8285926e-21)
(1.7551624 0.38344704 -1.6919856e-20)
(1.7339085 0.41669916 -5.0189741e-20)
(1.6885987 0.44605693 6.8516801e-20)
(1.6398315 0.46908752 -3.3103415e-20)
(1.4981955 0.44396796 4.3377586e-20)
(1.5459046 0.4537233 -6.6764191e-20)
(1.357059 0.40904579 -1.3511692e-19)
(1.4486112 0.44895648 0)
(1.1201942 0.27392069 0)
(0.99777369 0.21706822 1.0077033e-19)
(1.2258583 0.33277669 0)
(1.314434 0.38708318 -4.4339721e-20)
(0.85136071 0.1611769 0)
(0.69185584 0.11231212 0)
(0.50596206 0.068328757 0)
(0.079510446 0.0044143204 0)
(0.29889916 0.029715999 1.3227759e-19)
(1.8563948 0.25678626 -1.5744291e-20)
(1.8357507 0.28394864 -1.9010382e-20)
(1.8172967 0.31234895 0)
(1.8005094 0.34246756 1.3015137e-20)
(1.7860783 0.37379901 1.0941449e-20)
(1.7689223 0.40888699 1.9827813e-20)
(1.7376107 0.44070233 4.4136008e-20)
(1.6881112 0.47085202 -3.3354446e-20)
(1.6364606 0.49359257 -4.0544246e-20)
(1.4952016 0.46340414 -4.5466125e-20)
(1.5886516 0.48758178 1.4685807e-19)
(1.4011559 0.44664034 9.5922895e-20)
(1.4455937 0.46561409 -5.1197088e-20)
(1.1410946 0.28145696 -5.6278649e-20)
(1.0237872 0.22170235 -1.0300684e-19)
(1.2333888 0.33943768 6.1361914e-22)
(1.3174458 0.39703126 1.681537e-19)
(0.88811772 0.16663253 1.4115861e-19)
(0.74088815 0.11846764 4.2006191e-20)
(0.56648667 0.076704584 -7.5076321e-20)
(0.15495666 0.0094576137 0)
(0.36836322 0.040085385 -1.288871e-19)
(1.8946062 0.26722968 -1.2411174e-21)
(1.8751479 0.29468114 -9.7869523e-21)
(1.8576121 0.32350704 -1.9738461e-20)
(1.841949 0.35416714 -2.3137935e-20)
(1.8274554 0.3869507 5.9155352e-21)
(1.8122685 0.42356878 -1.9087685e-20)
(1.7875665 0.46940104 1.4705718e-20)
(1.7310836 0.50153342 -1.958067e-20)
(1.6773378 0.52761633 -6.6237388e-20)
(1.5361607 0.49966562 -4.8171966e-20)
(1.5833891 0.51052022 -6.4366984e-20)
(1.3993817 0.4602226 -5.3575263e-20)
(1.4838993 0.50367712 -4.8429422e-20)
(1.1985094 0.31577002 3.7822117e-20)
(1.1084214 0.25734283 1.5024279e-19)
(0.9773623 0.19357743 4.9210394e-20)
(1.2819414 0.37305332 -4.4730092e-20)
(1.3592031 0.43626682 -1.4326494e-19)
(0.83938564 0.14144639 1.3658507e-19)
(0.68953863 0.097967997 -8.0934479e-20)
(0.51167206 0.059851049 -7.2465012e-20)
(0.071996664 0.0058718358 0)
(0.31601661 0.029024285 0)
(1.922728 0.25850377 -1.2564108e-20)
(1.9026624 0.28537414 1.8676254e-20)
(1.8846183 0.31356548 6.7139785e-21)
(1.8686942 0.34338573 2.2693668e-20)
(1.8542047 0.37518441 1.8889437e-20)
(1.8406716 0.40915895 -2.3627758e-20)
(1.8262746 0.44435694 -1.0094307e-20)
(1.8215558 0.46609546 -4.3479997e-21)
(1.7803621 0.50122133 0)
(1.7255303 0.52950565 5.9398231e-20)
(1.670174 0.55434412 3.5434111e-20)
(1.5293431 0.52005001 1.4644017e-19)
(1.6219284 0.54789819 -2.1993373e-20)
(1.4350325 0.49844757 0)
(1.4763085 0.52067061 0)
(1.2278171 0.32797722 1.6133952e-19)
(1.1257726 0.25507329 -1.9878411e-19)
(1.011658 0.19458423 -5.1267749e-20)
(1.2789573 0.37546807 -9.5396811e-20)
(1.3609598 0.44360186 5.7347697e-20)
(0.88391738 0.14367447 -1.8284098e-19)
(0.74868188 0.10094422 0)
(0.58637409 0.064892092 7.314939e-20)
(0.13903252 0.017738887 0)
(0.40796138 0.037731498 3.2017315e-20)
(1.9550507 0.26737964 1.5175151e-21)
(1.936584 0.29452465 -2.7011689e-21)
(1.9195831 0.32292167 -4.097966e-22)
(1.90439 0.35285377 -1.104988e-21)
(1.8908727 0.38463121 -6.668708e-21)
(1.8788018 0.41779104 -1.1920394e-21)
(1.8699884 0.45145365 0)
(1.8583854 0.48556888 -1.0196064e-20)
(1.8203153 0.52929161 1.302875e-20)
(1.7648226 0.56220367 1.8304368e-20)
(1.7076841 0.59195451 0)
(1.5645163 0.56034949 0)
(1.6123039 0.57256573 4.1711078e-20)
(1.4280338 0.51083513 0)
(1.5069 0.56279981 5.3081565e-20)
(1.2215771 0.31766526 1.3038774e-19)
(1.0840211 0.2192351 0)
(1.1818179 0.27946441 -1.1394295e-19)
(0.97082956 0.1664378 5.0185671e-20)
(1.3050024 0.39256293 8.4918305e-20)
(1.3942743 0.4851712 0)
(1.3369895 0.42616734 -1.8816003e-19)
(0.84436886 0.11942408 0)
(0.70806789 0.082157711 7.9879359e-20)
(0.54639089 0.049914363 0)
(0.11682725 0.027505724 -1.8145845e-19)
(0.38208106 0.028525558 -3.0703832e-20)
(1.9731261 0.26012727 0)
(1.9591255 0.28512163 -5.8894642e-22)
(1.9434538 0.31249646 1.4692206e-21)
(1.9281546 0.34167473 0)
(1.9144815 0.37256972 0)
(1.9016435 0.40505028 5.399827e-21)
(1.8906812 0.43907438 -8.8225804e-22)
(1.882459 0.4712304 5.5395222e-22)
(1.8745797 0.50800831 0)
(1.8661649 0.52857889 0)
(1.811394 0.56115369 -3.4210706e-20)
(1.7563535 0.59285978 0)
(1.6971297 0.62131977 0)
(1.5521663 0.58152831 -5.2519022e-21)
(1.6459447 0.61486266 -4.3961152e-20)
(1.4543124 0.55813532 0)
(1.4936237 0.58195931 0)
(1.2632223 0.34277392 -2.5600594e-19)
(1.1108186 0.21589129 -6.2905953e-20)
(1.1926743 0.27044307 -1.3795074e-19)
(1.0129439 0.16426987 0)
(1.2932478 0.381444 1.6866885e-19)
(1.384282 0.49252625 1.609635e-19)
(1.3561107 0.45563618 -7.4190241e-20)
(0.89651424 0.11875849 0)
(0.77447857 0.081395933 4.2242136e-20)
(0.63128042 0.049526814 -7.7515921e-20)
(0.039326014 0.010244353 3.14716e-19)
(0.23834961 0.021595805 0)
(0.48999191 0.024158066 0)
(1.9937129 0.2662893 0)
(1.9861573 0.29179697 7.9423891e-21)
(1.9728841 0.31994191 0)
(1.9592326 0.34944724 6.7846817e-21)
(1.9464714 0.38060949 6.6631931e-21)
(1.9344425 0.41383578 0)
(1.9226182 0.44783805 4.3313618e-21)
(1.9096566 0.48002607 -5.0660509e-22)
(1.9108566 0.50178817 -3.98178e-21)
(1.8976255 0.55669334 0)
(1.8467672 0.59131218 0)
(1.7933289 0.62891239 1.7691667e-20)
(1.7336458 0.66775068 2.7567783e-20)
(1.5801276 0.62536026 -5.5232139e-20)
(1.6301585 0.64092191 0)
(1.4332874 0.56622342 0)
(1.5159226 0.62502613 0)
(1.2621158 0.32866929 8.1645822e-20)
(1.0798948 0.18573557 0)
(1.163495 0.23466399 2.0366395e-19)
(1.2365109 0.29069985 7.7593913e-20)
(0.98230106 0.13759234 -1.9900535e-19)
(1.3178894 0.40541501 1.372438e-19)
(1.4002193 0.52518628 -6.186796e-20)
(1.3429612 0.445992 -1.2585416e-19)
(0.86602594 0.095946239 -1.763265e-19)
(0.74213246 0.063476509 2.1348124e-19)
(0.60777777 0.033871836 0)
(0.030080041 -0.0063213267 1.724062e-19)
(0.22712905 0.015431707 1.4075069e-21)
(0.47411963 0.011919382 0)
(1.9973306 0.2786846 -1.5315056e-21)
(1.9901553 0.30803641 -8.1649696e-21)
(1.9787951 0.33742634 0)
(1.9669742 0.36805605 -1.3829441e-20)
(1.9559354 0.40024409 0)
(1.9442364 0.43452156 -3.2029445e-21)
(1.9317618 0.46895056 6.0274495e-21)
(1.9399484 0.51508428 1.0370468e-20)
(1.8870758 0.58720462 -1.7448786e-21)
(1.9314039 0.55612852 0)
(1.8387894 0.6235861 -1.5715825e-22)
(1.7850895 0.66619081 -1.6233141e-20)
(1.7156574 0.70105618 -2.6490862e-20)
(1.5613654 0.64634738 0)
(1.6582522 0.69008461 0)
(1.4453872 0.59844637 0)
(1.5021815 0.64148101 -5.5075396e-20)
(1.2902731 0.35033505 1.9932831e-19)
(1.1113107 0.18095694 1.9737229e-20)
(1.182736 0.22473741 7.7953443e-20)
(1.2460271 0.27651899 -8.4322319e-20)
(1.03688 0.13308669 8.3183579e-20)
(1.3099505 0.39159373 0)
(1.3804142 0.5229668 0)
(1.3553544 0.47252427 1.3982889e-19)
(0.9197801 0.091386112 1.7141862e-19)
(0.80858002 0.059984689 -1.5455223e-19)
(0.70108513 0.030867618 -1.1812447e-21)
(0.068796841 -0.00097305727 -3.0746985e-22)
(0.33688148 0.0052377778 -1.2065608e-19)
(0.57522069 0.0066653865 0)
(2.0066632 0.28082504 4.5725278e-20)
(2.0074104 0.31191514 0)
(2.0019553 0.34183976 1.627882e-20)
(1.9935972 0.37326049 1.6540458e-20)
(1.9856122 0.40704229 0)
(1.9774562 0.44253892 0)
(1.9620668 0.47964758 -1.4846582e-20)
(1.9443775 0.53566995 0)
(1.9678117 0.50006368 -7.7755195e-21)
(1.9182251 0.61308284 -1.3708949e-20)
(1.953445 0.58112597 -1.4806617e-20)
(1.874847 0.65369529 1.7945654e-22)
(1.8231278 0.69999602 2.5841514e-22)
(1.7460939 0.73965879 -9.698055e-21)
(1.5822398 0.69406983 0)
(1.6330121 0.71752598 0)
(1.4742183 0.6278392 4.7716649e-20)
(1.4265463 0.61087322 0)
(1.5197242 0.68176537 0)
(1.2906761 0.33368161 -1.8747858e-19)
(1.1602317 0.19438018 0)
(1.0947982 0.15465251 1.0867765e-19)
(1.2257756 0.23996382 8.3613144e-20)
(1.2771124 0.29226771 8.4626138e-20)
(1.0193932 0.11113107 0)
(1.3242873 0.41433156 1.251746e-19)
(1.3777797 0.54695456 0)
(1.3397517 0.45963641 -2.7233129e-19)
(0.89056153 0.069528605 -5.1051252e-20)
(0.7915684 0.043384001 9.947e-20)
(0.69186389 0.017828663 1.4206194e-19)
(1.9990448 0.26024915 -1.759867e-21)
(2.0071039 0.29400676 -1.5634751e-20)
(2.0089891 0.32800364 0)
(2.0053327 0.35899716 -3.4070562e-20)
(1.9999509 0.39155111 0)
(1.994226 0.42728305 0)
(1.984232 0.46275889 1.3345702e-20)
(1.9775713 0.54425935 0)
(1.9942655 0.50897386 0)
(1.9505981 0.60223681 1.1813076e-20)
(1.9135911 0.64280846 8.540519e-21)
(1.9792342 0.5682357 1.6947583e-20)
(1.8700677 0.68725654 -3.0862311e-22)
(1.8187429 0.73069226 -9.7466483e-21)
(1.7911801 0.7473644 2.1432495e-20)
(1.7243914 0.7733641 2.5274727e-20)
(1.5534104 0.71162935 0)
(1.6533078 0.75876253 0)
(1.4689902 0.66468183 1.0903737e-19)
(1.3973524 0.59557567 4.4092614e-20)
(1.4406038 0.65794224 -3.9139836e-20)
(1.4929456 0.69366411 -8.0785573e-20)
(1.306976 0.35037261 2.7141719e-19)
(1.182429 0.18349219 0)
(1.1510612 0.15211815 0)
(1.2418632 0.22433633 -1.6172697e-19)
(1.2850222 0.27353081 0)
(1.0660752 0.09689445 7.4565545e-20)
(1.3145662 0.39532079 6.6065418e-20)
(1.3483175 0.52962189 0)
(1.337495 0.48160884 0)
(0.93646325 0.060992991 -2.1722814e-20)
(0.88450597 0.038196766 -8.1171904e-20)
(0.78523198 0.0091986073 3.1662583e-21)
(1.974644 0.25512123 2.6874564e-20)
(2.002601 0.29332734 1.3158195e-20)
(2.0128312 0.32694057 0)
(2.0166199 0.35901928 0)
(2.0168395 0.3916459 1.4831829e-20)
(2.0140489 0.42660471 3.0182858e-20)
(2.0085045 0.46897913 -6.4881911e-21)
(1.9962414 0.53063353 -4.8023153e-21)
(2.009351 0.49439744 0)
(1.9782104 0.62251404 -1.1829078e-20)
(1.943738 0.66575707 -1.0274131e-20)
(1.9994595 0.57865353 0)
(1.9098788 0.71823879 0)
(1.8592093 0.75966324 -5.4988779e-21)
(1.8035185 0.78964317 0)
(1.6962334 0.77616962 -1.5039271e-20)
(1.7533565 0.80630899 -5.5466186e-21)
(1.5606668 0.74632398 -9.1335048e-20)
(1.6245146 0.78417821 -2.9310217e-20)
(1.378945 0.63183925 4.8614163e-20)
(1.4328033 0.68644422 3.3946261e-20)
(1.4934647 0.7234641 1.4092829e-19)
(1.3054502 0.32504029 -3.7504941e-19)
(1.2233097 0.19131524 -7.5940842e-20)
(1.1618504 0.13819517 -2.5156024e-20)
(1.2748762 0.23372092 -8.6701371e-20)
(1.3051554 0.28192237 -1.6896237e-19)
(1.1399868 0.10731894 -7.6916398e-20)
(1.0291616 0.066173311 1.6269872e-20)
(1.3117725 0.4165612 8.4588263e-20)
(1.3362312 0.55407403 0)
(1.3186719 0.46151222 -8.9439523e-20)
(0.88661207 0.025431677 -1.191246e-19)
(1.9664261 0.26365562 -2.4069288e-20)
(1.9796734 0.27868841 -9.4854952e-21)
(2.0018526 0.31000592 -1.5466836e-20)
(2.0129458 0.341161 0)
(2.017983 0.37377214 -1.5369483e-20)
(2.0193377 0.40728002 9.7440158e-21)
(2.0184964 0.44065079 -2.7688492e-20)
(2.018492 0.45924597 -3.0903875e-21)
(2.0156775 0.53765875 3.2961237e-20)
(2.0224635 0.49438559 0)
(1.9997449 0.60462801 -4.732828e-21)
(1.9746394 0.64911216 -1.0134229e-20)
(1.9442758 0.70280336 0)
(2.013899 0.56289325 -4.6439289e-20)
(1.9001604 0.75106448 1.1408383e-20)
(1.8436066 0.79111149 1.0693573e-20)
(1.7870525 0.81066986 3.576262e-21)
(1.6959264 0.82302094 -2.6260207e-20)
(1.7339682 0.8328445 -1.9551904e-20)
(1.5926827 0.77559376 1.61724e-19)
(1.5241307 0.75599594 0)
(1.6403601 0.82213726 2.7280813e-20)
(1.3472549 0.61194711 0)
(1.3955562 0.67974967 -1.2118481e-19)
(1.4593288 0.7258652 -1.3478608e-19)
(1.3019419 0.34628167 4.1428626e-19)
(1.2432848 0.17438481 0)
(1.2270374 0.14486036 2.8083954e-19)
(1.2901983 0.21384378 1.6367176e-19)
(1.3134263 0.25685142 2.5553287e-19)
(1.1807411 0.09014429 8.8438099e-20)
(1.0765081 0.052495892 6.5296633e-20)
(1.2981266 0.39300838 -1.4806373e-19)
(1.3107964 0.53225707 -1.2512156e-19)
(1.3072815 0.48375815 0)
(0.97033916 0.013230138 0)
(1.9062459 0.24854656 5.3147324e-20)
(1.942138 0.27494062 0)
(1.9781796 0.30421544 4.3554095e-20)
(2.0010599 0.33630185 4.2961853e-20)
(2.0134194 0.36868585 2.3268335e-20)
(2.0190968 0.40115337 -1.0880141e-20)
(2.0232413 0.43199699 -1.4889339e-20)
(2.0250402 0.46258674 -1.3670069e-20)
(2.0231328 0.52755895 -9.4261161e-21)
(2.023395 0.50917037 9.4501148e-21)
(2.0254853 0.47516123 9.1448663e-21)
(2.0139267 0.6069815 1.2271904e-20)
(1.9968749 0.66079033 4.7906343e-20)
(1.9712626 0.71349162 0)
(2.0232643 0.56532139 4.0539756e-20)
(1.926799 0.78138199 -4.163944e-20)
(1.8629915 0.81988279 0)
(1.8040856 0.84094548 0)
(1.6718514 0.8387078 1.4751484e-20)
(1.7516919 0.87314804 5.4402686e-21)
(1.5813075 0.81555751 -4.7951926e-20)
(1.5221649 0.80616116 -2.5774214e-20)
(1.610878 0.83843705 1.9825412e-20)
(1.3230772 0.63173596 -1.3011528e-19)
(1.3864286 0.713259 -8.3780178e-20)
(1.450311 0.76289074 0)
(1.2989144 0.32538341 -1.2770802e-19)
(1.2820283 0.18012815 0)
(1.2572124 0.12557391 -2.9953302e-19)
(1.313708 0.21557189 -9.2904097e-20)
(1.3148243 0.25470391 0)
(1.1620847 0.063750094 -1.5826345e-19)
(1.24342 0.099084805 0)
(1.0586257 0.025531594 1.2028599e-19)
(1.287366 0.41800633 1.4719762e-20)
(1.2921227 0.54982735 2.9490158e-19)
(1.291256 0.46369742 -1.9013426e-20)
(1.8521744 0.22942031 2.1006038e-22)
(1.8906263 0.25309443 -1.3944392e-20)
(1.9368001 0.28282773 -4.905339e-20)
(1.972156 0.31393121 -5.0908225e-20)
(1.9953768 0.34751361 2.2955994e-20)
(2.0096584 0.38036365 -4.8043529e-20)
(2.0176149 0.41291641 0)
(2.0227865 0.44230636 2.3715475e-20)
(2.0245121 0.5313309 0)
(2.0238747 0.50044923 2.931797e-20)
(2.0212345 0.47000586 -3.267259e-20)
(2.0122466 0.62450918 -1.1231673e-20)
(2.0208734 0.58420623 2.0410104e-20)
(2.0085054 0.64900182 -3.2568969e-20)
(1.9884903 0.6915577 0)
(1.9708242 0.73567543 0)
(2.0228934 0.54486128 -1.1035218e-20)
(1.9512662 0.77664861 0)
(1.899486 0.82041969 3.0640117e-20)
(1.8392046 0.84779994 3.2493284e-21)
(1.7875746 0.87409495 0)
(1.6789038 0.87940939 2.724876e-20)
(1.721654 0.89853004 -7.3853211e-21)
(1.5549499 0.82839257 2.7563675e-21)
(1.4797044 0.81148793 0)
(1.6106288 0.87364967 -4.8432193e-20)
(1.2892167 0.59893662 1.485111e-19)
(1.3235122 0.68565517 0)
(1.3574611 0.71692897 1.6200435e-19)
(1.4119277 0.76061702 0)
(1.2808293 0.33030442 0)
(1.3050879 0.27374225 -1.4281219e-19)
(1.3050666 0.15926742 0)
(1.2987845 0.13199122 6.9212787e-20)
(1.3304277 0.18902807 9.5515966e-20)
(1.3294819 0.21074336 0)
(1.2160496 0.048239411 -8.7655701e-20)
(1.2840425 0.081858644 0)
(1.1311878 0.012606323 -2.171832e-19)
(1.279141 0.40652615 2.6864341e-19)
(1.2689872 0.51962802 -2.4897035e-19)
(1.2744931 0.47666479 9.1518541e-20)
(1.8694522 0.22476978 -3.6333316e-20)
(1.7476448 0.21054273 2.6054e-20)
(1.8333627 0.24057669 -3.6986623e-20)
(1.8685539 0.26862454 0)
(1.9243381 0.30174009 6.7259963e-21)
(1.9600037 0.33573094 0)
(1.9834394 0.3692062 3.2237882e-20)
(1.9962835 0.40220944 0)
(2.0128176 0.43665995 -4.7242902e-21)
(2.0217195 0.51176244 3.3922161e-20)
(2.0175602 0.48196187 -2.4697534e-20)
(2.0067121 0.4480455 2.2038765e-20)
(2.0123816 0.61664007 -3.7855021e-20)
(2.0151719 0.57469925 -1.523702e-20)
(2.0059738 0.65756711 7.0309975e-20)
(1.9973484 0.69388183 -3.1972479e-20)
(1.9616683 0.75655476 0)
(1.9886731 0.71418993 -1.7122071e-20)
(2.0150408 0.53908603 5.1399417e-20)
(1.9518318 0.79818944 0)
(1.9085941 0.85011023 -1.7006188e-20)
(1.8500803 0.87956474 3.8525136e-20)
(1.8115134 0.9027691 0)
(1.6439765 0.89824505 -1.7033391e-20)
(1.7304272 0.93772206 6.5606859e-21)
(1.5667224 0.87769137 9.1438823e-20)
(1.467438 0.8507685 -5.8169337e-20)
(1.2573423 0.61367248 -1.9311332e-19)
(1.2811936 0.70319997 -1.9922862e-19)
(1.3466938 0.78227354 -1.7941999e-20)
(1.3908878 0.79782365 -9.1530834e-20)
(1.2666221 0.36931654 1.1769304e-20)
(1.283757 0.29720892 0)
(1.3045927 0.25936489 1.9459386e-19)
(1.331645 0.16202045 -9.2033197e-20)
(1.328578 0.11233992 0)
(1.3386867 0.18669741 2.2824015e-19)
(1.3294222 0.20355574 0)
(1.2029008 0.02407438 7.8708129e-20)
(1.2747648 0.05773428 2.9801285e-19)
(1.3255002 0.088631528 0)
(1.2614758 0.448979 -1.9556602e-19)
(1.2399221 0.52980677 0)
(1.6507068 0.18474956 0)
(1.7374592 0.2124202 -6.5366039e-20)
(1.8157985 0.24630865 2.7035269e-20)
(1.8570153 0.27313654 0)
(1.9124972 0.30985867 8.2712057e-21)
(1.9486566 0.34356749 -3.2915869e-20)
(1.9714309 0.37682702 0)
(1.9886469 0.41096689 0)
(2.0102773 0.50563989 -3.1635669e-20)
(1.9996004 0.47242396 3.1947916e-20)
(1.9767588 0.43615021 -5.2054666e-20)
(2.0077544 0.60292807 0)
(2.0055066 0.63654257 9.7014846e-22)
(2.0068764 0.58363056 0)
(2.0081168 0.55068421 -8.9806631e-20)
(2.0002131 0.67568999 -6.6511268e-22)
(1.9734012 0.75904923 -7.8106993e-20)
(1.9873152 0.71890528 1.5536869e-20)
(2.0031468 0.51646983 0)
(1.9399959 0.82074008 0)
(1.9628595 0.77861653 4.1922666e-20)
(1.9242175 0.84355509 0)
(1.8766477 0.88460211 -1.1567498e-20)
(1.8059683 0.94090896 1.3917693e-20)
(1.6480777 0.93388009 -2.4106054e-20)
(1.7656235 0.96407283 -1.4003401e-20)
(1.6876447 0.9594501 0)
(1.549192 0.90151704 0)
(1.4107589 0.8472713 0)
(1.4961827 0.89995641 3.4291158e-20)
(1.2286962 0.57737553 1.9821391e-19)
(1.2486345 0.66444612 1.9819287e-19)
(1.2711544 0.75551329 0)
(1.3101957 0.79347148 1.1234967e-20)
(1.2392967 0.37607368 -1.5597268e-19)
(1.2641322 0.27953205 -1.9827135e-19)
(1.3127427 0.22664021 -2.5592408e-19)
(1.3535452 0.13843109 -1.4411003e-19)
(1.3563201 0.11582054 4.3506643e-20)
(1.3542786 0.15767527 -2.4190687e-19)
(1.3434522 0.17007755 0)
(1.2586177 0.011273414 -8.7978948e-20)
(1.3196189 0.043431883 -9.6132262e-20)
(1.3609717 0.071994807 0)
(1.2355131 0.45184567 1.7560185e-19)
(1.2182318 0.49552535 0)
(1.4765072 0.15766765 -4.8839974e-20)
(1.6536117 0.20517659 4.9474643e-20)
(1.7071461 0.22232919 2.4199336e-20)
(1.7669168 0.25521914 -3.6446251e-20)
(1.8347978 0.28960682 -4.7047585e-20)
(1.8832736 0.32331574 4.2673706e-20)
(1.9140409 0.35496926 -4.5825926e-20)
(1.9511556 0.39828093 0)
(1.9921214 0.48304687 0)
(1.969941 0.44574337 2.8361007e-20)
(1.9440057 0.40882956 7.3090984e-21)
(1.987799 0.59604667 2.8141513e-20)
(1.9931965 0.63188245 2.2781892e-20)
(1.985069 0.56568867 0)
(1.9834503 0.53601469 1.0944996e-19)
(1.9914346 0.67553538 0)
(1.9767208 0.74073404 2.4607741e-20)
(1.9815909 0.69244054 0)
(1.9752206 0.50308464 0)
(1.9401776 0.80163956 0)
(1.9561097 0.7805931 0)
(1.9047394 0.86858734 0)
(1.8723894 0.91598378 3.4293432e-20)
(1.8336154 0.94712538 0)
(1.6191548 0.96192491 -7.1898302e-21)
(1.7525381 1.0045355 -4.6407872e-21)
(1.6835831 0.99694003 4.6408524e-21)
(1.5769656 0.95415419 2.1311782e-20)
(1.388147 0.89055297 4.0605489e-20)
(1.4688174 0.94665755 -4.6206863e-20)
(1.1922239 0.58575902 2.4973959e-19)
(1.2086807 0.67613917 -2.6199949e-19)
(1.2299895 0.76826395 0)
(1.3066445 0.84536611 0)
(1.2231291 0.42028853 1.2705747e-20)
(1.2235666 0.34069323 -1.3706131e-19)
(1.2321915 0.30112394 1.9858726e-19)
(1.278075 0.22988298 3.2409405e-19)
(1.3042765 0.21064158 -1.0380748e-19)
(1.3631042 0.13633809 -1.1637866e-19)
(1.3826754 0.09600275 1.0993646e-20)
(1.3580365 0.15138126 0)
(1.3400384 0.15716404 0)
(1.3137131 0.021704031 -1.0155185e-19)
(1.3607521 0.051045064 1.1941989e-19)
(1.3872015 0.076511212 -9.7137812e-21)
(1.1824374 0.49974009 0)
(1.4265133 0.15543426 6.9017446e-20)
(1.5306493 0.179418 0)
(1.6645814 0.21959724 -4.745119e-20)
(1.6857825 0.22868324 0)
(1.7575681 0.26120378 8.0651918e-20)
(1.8185417 0.29406693 -5.5448597e-21)
(1.8641169 0.32755891 -4.9663523e-20)
(1.8921097 0.35697514 6.7172459e-20)
(1.9085931 0.3746585 -7.8468198e-21)
(1.95859 0.4690058 -4.1799694e-20)
(1.9285955 0.43213295 0)
(1.8847321 0.38732536 -8.7447771e-21)
(1.9790551 0.60590391 -2.4834911e-20)
(1.9709843 0.57144896 -1.7991922e-21)
(1.9820319 0.64729797 -4.1289839e-20)
(1.970164 0.54287342 -7.3875519e-20)
(1.9624379 0.51058779 -2.2632347e-20)
(1.963855 0.73948575 1.1015273e-20)
(1.9572282 0.68786893 0)
(1.9479583 0.47709809 2.0323333e-20)
(1.9246147 0.80053735 -8.0105811e-20)
(1.9509704 0.76002481 0)
(1.8900964 0.83859087 0)
(1.8772189 0.9007011 -3.5065623e-20)
(1.8180385 0.97414798 3.7960555e-20)
(1.6362466 1.0064741 -2.4884659e-20)
(1.7689829 1.0164752 0)
(1.7072838 1.0224593 1.1233689e-21)
(1.544884 1.0004183 1.2080924e-19)
(1.4176661 0.94217497 3.789605e-20)
(1.3403909 0.89083596 0)
(1.4941284 0.9961065 -8.4150264e-20)
(1.1643113 0.54451636 -4.6862673e-19)
(1.1772509 0.63511352 4.0064122e-19)
(1.1946773 0.72828982 -7.3128234e-20)
(1.2175918 0.82216297 0)
(1.2557117 0.86223869 -1.4230946e-19)
(1.189768 0.41473203 0)
(1.1855368 0.37119262 0)
(1.2072588 0.271347 4.3155893e-21)
(1.2599878 0.2089875 5.5435206e-21)
(1.3182326 0.17355803 9.8901685e-20)
(1.3811073 0.11328094 2.4316175e-19)
(1.3904531 0.095601626 -2.2574014e-19)
(1.375123 0.12394488 -1.5134951e-19)
(1.3558978 0.12596447 0)
(1.3588396 0.0099426932 1.9043233e-19)
(1.3979678 0.037151031 -3.3137334e-19)
(1.4172691 0.058405357 0)
(1.1633673 0.45882521 0)
(1.2260109 0.12813294 -5.6691765e-20)
(1.4505413 0.17129675 -2.3250696e-20)
(1.5308533 0.19176023 2.8564519e-20)
(1.5655935 0.20505992 0)
(1.630078 0.23324282 4.6161127e-20)
(1.7151749 0.2674887 -4.6130409e-20)
(1.7716869 0.30035558 6.0856246e-20)
(1.8057274 0.32726999 0)
(1.8448475 0.35579498 -4.3508355e-20)
(1.9243266 0.44308004 0)
(1.8854727 0.40762978 -1.5176108e-21)
(1.8348716 0.36044577 0)
(1.8684046 0.38988212 1.4958475e-21)
(1.9437833 0.59002003 8.8618127e-20)
(1.9349159 0.5545329 1.2029737e-19)
(1.9488631 0.62928144 0)
(1.9255497 0.52100482 8.5611884e-20)
(1.9133723 0.48845349 0)
(1.9455295 0.71007936 -3.0838438e-21)
(1.9318808 0.65812203 4.4360028e-20)
(1.894219 0.45542151 2.4617516e-20)
(1.9126439 0.772763 4.1078792e-20)
(1.9027722 0.81557188 4.8452127e-20)
(1.9265872 0.75565725 0)
(1.843306 0.83257728 0)
(1.8455157 0.91308119 0)
(1.8145987 0.94627838 -6.2181054e-20)
(1.7815196 1.0015461 0)
(1.6176474 1.0401064 -1.0613932e-20)
(1.716096 1.0522519 3.608694e-20)
(1.681866 1.059374 1.084e-20)
(1.5682962 1.0446699 -4.1761682e-20)
(1.3923162 0.98815041 -1.2398476e-19)
(1.321774 0.93942621 -4.674197e-20)
(1.4666809 1.0416154 2.0713772e-20)
(1.1236226 0.55472675 4.7504975e-19)
(1.1318171 0.64466624 -7.8556163e-20)
(1.1482086 0.73973848 2.5926369e-19)
(1.1682085 0.8357953 1.7369795e-19)
(1.2426827 0.91721487 2.4966221e-19)
(1.1545089 0.3580685 -1.0044431e-19)
(1.1715395 0.27882367 1.0799016e-19)
(1.2276176 0.21991652 -7.0404511e-20)
(1.2767995 0.16685755 2.5040954e-19)
(1.3059506 0.1545135 -2.1578396e-19)
(1.38734 0.10866372 1.433071e-19)
(1.4088274 0.07844115 2.8056106e-19)
(1.3747496 0.11274633 1.6233081e-19)
(1.3475184 0.10798067 0)
(1.3973101 0.018172121 0)
(1.4232254 0.040714627 3.3338334e-19)
(1.4196192 0.061974973 -1.3504826e-20)
(1.1143868 0.44763002 0)