/*--------------------------------*- C++ -*----------------------------------*\
| =========                 |                                                 |
| \\      /  F ield         | OpenFOAM: The Open Source CFD Toolbox           |
|  \\    /   O peration     | Version:  2112                                  |
|   \\  /    A nd           | Website:  www.openfoam.com                      |
|    \\/     M anipulation  |                                                 |
\*---------------------------------------------------------------------------*/
FoamFile
{
    version     2.0;
    format      ascii;
    arch        "LSB;label=32;scalar=64";
    class       volVectorField;
    location    "0.335";
    object      ddtCorrDdt0(U);
}
// * * * * * * * * * * * * * * * * * * * * * * * * * * * * * * * * * * * * * //

dimensions      [0 1 -2 0 0 0 0];

internalField   nonuniform List<vector> 
8100
(
(-0.1886325 0.14936416 -1.3471983e-19)
(-0.30976104 0.15926312 -1.1384352e-19)
(-0.38632592 0.20360681 2.062712e-20)
(-0.32829497 0.088765872 -5.5003826e-20)
(-0.37119595 0.29137549 0)
(-0.45181821 0.1691687 0)
(-0.20573332 0.046041352 2.0947893e-19)
(-0.40389692 0.089397444 1.9664154e-19)
(-0.45148542 0.31369816 -7.9403616e-20)
(-0.48940656 0.17798745 0)
(-0.45037278 0.10836765 1.08355e-20)
(-0.13568384 0.037952519 -8.1046068e-20)
(-0.20310664 0.023976522 -1.6908999e-19)
(-0.40718469 0.044073446 -1.6930973e-19)
(-0.40970246 0.39201627 0)
(-0.49198106 0.25485595 5.3717491e-20)
(-0.52478707 0.12521912 0)
(-0.48457311 0.076339624 -2.4331789e-20)
(-0.29173519 0.025553386 4.4707621e-20)
(-0.44723954 0.034774901 2.0030563e-20)
(-0.48220504 0.39921498 0)
(-0.54306437 0.2551797 4.2127207e-20)
(-0.55041405 0.12497456 0)
(-0.51055494 0.070739823 0)
(-0.47253735 0.033574532 2.4187208e-20)
(-0.23333875 0.012677478 -7.3654919e-21)
(-0.43513016 0.0066459742 -1.8323483e-22)
(-0.52083042 0.37903672 0)
(-0.56873047 0.19137509 0)
(-0.53883476 0.31490192 0)
(-0.57186316 0.08192444 0)
(-0.51796752 0.01876479 -3.963394e-21)
(-0.479991 -0.00060621693 0)
(-0.33236156 0.0074030948 2.5857855e-20)
(-0.44778295 -0.0094597812 5.5828559e-20)
(-0.56472926 0.40955064 1.6588627e-19)
(-0.60475928 0.1902161 3.3839742e-20)
(-0.58842551 0.30951803 0)
(-0.60580244 0.092935447 3.9116135e-47)
(-0.56440316 0.031260897 0)
(-0.54405308 -0.0083597701 -1.5595536e-20)
(-0.48805858 -0.020416092 2.7051898e-20)
(-0.45781364 -0.025605681 1.5415775e-21)
(-0.23275516 0.0032561735 -1.7556763e-20)
(-0.42188863 -0.021613744 -5.6822401e-20)
(-0.56915047 0.4653674 -2.6919899e-19)
(-0.59954944 0.36833416 -8.320088e-20)
(-0.62547342 0.13215076 -4.1472059e-20)
(-0.61656806 0.23678107 1.054011e-20)
(-0.61142233 0.28628561 -3.7541848e-20)
(-0.62278126 0.046157263 0)
(-0.59377455 0.0014173433 0)
(-0.53508782 -0.075190375 -5.1322458e-20)
(-0.47983077 -0.067473491 -2.8687514e-20)
(-0.44495909 -0.059325349 9.8658593e-20)
(-0.33273229 -0.006922571 5.2348068e-22)
(-0.41472303 -0.042481109 -1.0908456e-19)
(-0.60674842 0.48080915 -1.5842111e-19)
(-0.63458695 0.38562975 6.8948924e-20)
(-0.65606823 0.13069749 -1.05284e-19)
(-0.65687091 0.21682068 0)
(-0.6510845 0.30319162 3.4368684e-20)
(-0.65480426 0.044399284 1.2419032e-20)
(-0.60106295 -0.029803907 3.9256838e-21)
(-0.5563463 -0.09735402 -1.961223e-20)
(-0.49256158 -0.099533269 6.9189126e-20)
(-0.44566882 -0.088177882 0)
(-0.41504994 -0.069399601 -9.7855813e-20)
(-0.21015276 -0.0040580884 0)
(-0.37728995 -0.041780172 1.0639822e-19)
(-0.6417622 0.44005704 1.0115937e-20)
(-0.66337953 0.34840552 -7.4277341e-20)
(-0.67610841 0.088204183 5.0853693e-20)
(-0.67327442 0.17882736 5.0189901e-20)
(-0.67565654 0.26192144 0)
(-0.66530206 0.00089007639 6.2981089e-21)
(-0.58921847 -0.075659854 -5.9491905e-20)
(-0.63731235 -0.034061263 -1.6930693e-20)
(-0.55403033 -0.14765044 8.9036299e-20)
(-0.47463087 -0.15128115 6.7005415e-20)
(-0.4223102 -0.12967911 4.2569977e-21)
(-0.38806777 -0.10150125 4.3854379e-21)
(-0.30217296 -0.017415998 0)
(-0.35875293 -0.065905691 6.5501373e-20)
(-0.68547487 0.44945859 -1.0487042e-20)
(-0.70146201 0.35454754 0)
(-0.71530113 0.082309884 -3.7424611e-20)
(-0.71473928 0.17663825 5.44404e-20)
(-0.71144211 0.26624444 -4.8671906e-20)
(-0.69900219 -0.010320169 1.2067269e-20)
(-0.61336017 -0.10678081 -5.8174199e-20)
(-0.64364527 -0.076473879 1.2543663e-20)
(-0.52649653 -0.1821006 0)
(-0.58379354 -0.16720999 -3.473667e-20)
(-0.49107092 -0.18439874 -4.5407172e-20)
(-0.42878148 -0.1633662 -7.4707399e-20)
(-0.38451413 -0.13429564 7.5624426e-20)
(-0.35344665 -0.10016722 9.2094169e-21)
(-0.17347241 -0.0092058187 0)
(-0.31064225 -0.05485471 -7.5824141e-20)
(-0.70381483 0.50515046 0)
(-0.71666679 0.40587644 0)
(-0.72811293 0.31455686 0)
(-0.73971899 0.12811172 -1.245444e-20)
(-0.72983064 0.03560038 -9.2996209e-21)
(-0.73476147 0.22408808 3.5577434e-20)
(-0.70817997 -0.054546424 5.4686478e-21)
(-0.61333106 -0.14237361 4.2307776e-20)
(-0.67543727 -0.089792139 -8.1539533e-21)
(-0.54150894 -0.22521475 8.2255718e-20)
(-0.5787017 -0.20956935 3.5117784e-20)
(-0.46444771 -0.23677653 5.2413425e-20)
(-0.40599266 -0.20676203 0)
(-0.35401788 -0.1695499 9.0793061e-21)
(-0.31858539 -0.12928935 2.1749978e-20)
(-0.25096836 -0.023437239 4.6471607e-21)
(-0.28615674 -0.080232427 0)
(-0.75325457 0.51252597 0)
(-0.76113272 0.41249954 -7.7181418e-20)
(-0.76911763 0.31857088 1.8160101e-47)
(-0.77972786 0.13470126 0)
(-0.77192819 0.022433447 1.1960164e-21)
(-0.77515248 0.22726745 6.1947367e-20)
(-0.74380442 -0.070786492 -9.0501306e-21)
(-0.64337682 -0.1646946 -9.4022038e-20)
(-0.67896368 -0.13628422 4.1807689e-20)
(-0.52896697 -0.25997384 -6.6612623e-20)
(-0.60512402 -0.23252118 -7.2210448e-20)
(-0.42035265 -0.23944692 -1.166886e-19)
(-0.48511408 -0.27101792 0)
(-0.35944845 -0.2048414 0)
(-0.31480466 -0.16516573 8.0712258e-20)
(-0.28021517 -0.11858038 0)
(-0.13056548 -0.012134001 0)
(-0.23347997 -0.061534103 0)
(-0.78345151 0.46322075 0)
(-0.78878632 0.36760215 8.0385312e-20)
(-0.79408192 0.27600892 -5.3788371e-20)
(-0.79902082 0.18565634 0)
(-0.80110777 0.10083424 1.7352846e-20)
(-0.79815654 0.05448352 0)
(-0.77778104 -0.036863507 0)
(-0.74940139 -0.12082099 -1.9474241e-21)
(-0.64265763 -0.20886669 5.1232137e-20)
(-0.71296274 -0.1551439 1.0724124e-20)
(-0.55525763 -0.29292523 -7.1298135e-20)
(-0.59795847 -0.27558237 1.471955e-19)
(-0.40192836 -0.27844405 1.2117225e-19)
(-0.47276975 -0.3146233 0)
(-0.33456894 -0.23868236 -1.1465001e-19)
(-0.28229101 -0.19435607 -1.9698114e-19)
(-0.24483423 -0.14389869 -7.3800707e-20)
(-0.18975831 -0.026043679 -8.5862447e-20)
(-0.20789946 -0.085778719 0)
(-0.8277971 0.4665199 0)
(-0.83020354 0.37211664 -1.4547525e-47)
(-0.83376449 0.28119908 7.0181121e-20)
(-0.83808563 0.19342122 -5.7349026e-20)
(-0.84173268 0.11264952 -6.951517e-20)
(-0.83702587 0.033408091 7.0201299e-21)
(-0.81766285 -0.051147283 0)
(-0.79011076 -0.1389518 1.438431e-21)
(-0.67472547 -0.23291897 0)
(-0.7152699 -0.20320906 0)
(-0.54395617 -0.33690655 4.0378016e-20)
(-0.62717737 -0.30410487 0)
(-0.35011613 -0.27704158 1.2819359e-19)
(-0.41896221 -0.3159468 0)
(-0.49809268 -0.34758381 -8.6423518e-20)
(-0.28979774 -0.23302907 1.0680843e-19)
(-0.24200253 -0.18170999 -2.5247037e-20)
(-0.20436967 -0.1258665 9.2798339e-20)
(-0.086480257 -0.013378134 8.0280166e-20)
(-0.15653854 -0.063104374 2.2212093e-20)
(-0.85318801 0.51440221 1.0197187e-19)
(-0.85244712 0.41959919 1.4819932e-47)
(-0.8539071 0.32808786 -7.2118887e-20)
(-0.8565501 0.23980986 4.28168e-20)
(-0.85957865 0.15482813 -2.7382677e-20)
(-0.86351229 0.074539388 3.2468919e-20)
(-0.84855694 -0.0069783087 2.1926867e-20)
(-0.82750051 -0.099709267 -3.7134395e-21)
(-0.79496888 -0.19014369 0)
(-0.67186426 -0.28054572 0)
(-0.75471138 -0.22610392 0)
(-0.57213516 -0.36853743 -2.1048401e-19)
(-0.61978312 -0.35106191 8.5291856e-20)
(-0.33123101 -0.30919654 7.5113205e-21)
(-0.40678628 -0.35393865 0)
(-0.48448524 -0.38767116 4.1027154e-20)
(-0.26397555 -0.25981112 0)
(-0.21100615 -0.20426446 0)
(-0.17216811 -0.14513461 0)
(-0.12685983 -0.026555584 -2.1552684e-20)
(-0.13573421 -0.08315779 0)
(-0.90035405 0.51373308 2.4738066e-19)
(-0.89639713 0.42086642 9.5383342e-20)
(-0.895902 0.33091843 0)
(-0.89732274 0.2433591 1.7306079e-20)
(-0.90091641 0.15817735 -3.4436506e-21)
(-0.90209488 0.072837385 -2.1377632e-20)
(-0.89546697 -0.016761454 -4.7293876e-20)
(-0.86857274 -0.11791281 2.3015262e-20)
(-0.8346117 -0.21044626 -3.1461052e-21)
(-0.71053862 -0.30879454 -2.4004761e-20)
(-0.75518835 -0.27738017 3.4544529e-20)
(-0.56150755 -0.4141462 1.3070947e-19)
(-0.65790404 -0.3835647 0)
(-0.35464076 -0.35203433 0)
(-0.28310047 -0.30055859 -1.2160277e-19)
(-0.43474983 -0.3905924 0)
(-0.51171734 -0.42440371 4.7787911e-20)
(-0.22075762 -0.24406585 0)
(-0.1714567 -0.18270545 0)
(-0.13456414 -0.12189789 0)
(-0.045556328 -0.011653704 0)
(-0.089874333 -0.057339408 -1.7712631e-19)
(-0.92232715 0.46505633 -1.1663833e-19)
(-0.91872624 0.37573475 -9.9850124e-20)
(-0.91844938 0.28836347 6.9092007e-48)
(-0.91985221 0.20256146 3.2633984e-20)
(-0.92372462 0.11705529 3.1175626e-20)
(-0.92366916 0.027805581 4.231931e-20)
(-0.90943015 -0.066495913 4.0536792e-20)
(-0.87556045 -0.1696959 -2.0406392e-20)
(-0.83666775 -0.26416667 1.154209e-20)
(-0.70639046 -0.35953827 3.0460477e-20)
(-0.79427907 -0.30193699 -5.7857443e-20)
(-0.5996794 -0.44945341 -9.047586e-20)
(-0.65089228 -0.43209275 4.6668429e-20)
(-0.33476876 -0.38253338 7.0516889e-20)
(-0.25990942 -0.32305605 1.3141432e-19)
(-0.42237636 -0.42152477 -2.3008228e-21)
(-0.50151264 -0.47135119 -1.9102512e-19)
(-0.19551969 -0.26125845 -1.8282691e-19)
(-0.14542696 -0.19706419 -5.6197254e-20)
(-0.10853508 -0.13315042 1.0112371e-19)
(-0.070384483 -0.021890828 0)
(-0.07555363 -0.070409955 1.7273901e-19)
(-0.96502992 0.46353635 1.0250568e-20)
(-0.96062771 0.37696595 -1.0923704e-19)
(-0.95942061 0.29143067 -1.3776436e-19)
(-0.9604753 0.20663588 -1.2175213e-19)
(-0.96303641 0.12117347 3.7156314e-20)
(-0.96307828 0.033248687 -3.5209295e-20)
(-0.96168265 -0.082376141 4.041391e-20)
(-0.91683286 -0.18993172 -1.2010189e-20)
(-0.87554312 -0.28684676 -7.0190088e-21)
(-0.74668122 -0.38910977 3.2084533e-20)
(-0.79218117 -0.3559455 2.8381801e-20)
(-0.59071557 -0.49466786 5.6499652e-20)
(-0.69244154 -0.46571904 3.6582733e-20)
(-0.37432089 -0.42731521 -4.7712595e-20)
(-0.29298366 -0.37498122 -1.9321647e-19)
(-0.21431572 -0.30222055 -6.2383834e-20)
(-0.45343537 -0.47029108 4.9263014e-20)
(-0.5386938 -0.50745783 1.6193002e-19)
(-0.15780388 -0.23459743 -1.8239303e-19)
(-0.11096556 -0.16766284 1.072725e-19)
(-0.076966451 -0.10438163 1.0148703e-19)
(-0.016923559 -0.010393094 0)
(-0.041741247 -0.045547545 0)
(-0.9980835 0.50208308 -2.3485867e-19)
(-0.98465945 0.4179934 2.3305085e-19)
(-0.98070431 0.33421979 5.5295046e-20)
(-0.98072322 0.25038861 1.4881354e-19)
(-0.98220177 0.16651307 1.0411004e-19)
(-0.9846926 0.081322773 -9.1928718e-20)
(-0.98249033 0.00084635244 -3.6799358e-20)
(-0.98697587 -0.053234273 7.0169868e-21)
(-0.96226037 -0.14867265 0)
(-0.9212965 -0.24692517 2.3521814e-20)
(-0.87769093 -0.34386288 -5.0435278e-22)
(-0.74095654 -0.44072174 -1.0207795e-19)
(-0.83023572 -0.38138321 8.9397422e-21)
(-0.63386185 -0.52951181 0)
(-0.68407703 -0.51343841 0)
(-0.36623279 -0.46781767 -2.0083194e-19)
(-0.2646625 -0.39413247 2.5247764e-19)
(-0.19308359 -0.31590905 6.6857141e-20)
(-0.4273996 -0.4856325 1.1831681e-19)
(-0.53237858 -0.54130125 -6.0722895e-20)
(-0.13707176 -0.24287016 2.4220961e-19)
(-0.091945626 -0.17267697 0)
(-0.060372293 -0.10790313 -9.9208761e-20)
(-0.031775866 -0.015933001 0)
(-0.032864763 -0.052035477 -4.5320012e-20)
(-1.0468407 0.49047792 -1.079272e-19)
(-1.0244427 0.41615172 1.8702595e-19)
(-1.0191366 0.33553259 -7.0076425e-21)
(-1.0190094 0.25433226 -1.2748209e-20)
(-1.0208535 0.17228452 -1.2010925e-19)
(-1.0242622 0.090056512 -2.4535683e-20)
(-1.0265541 0.01595769 0)
(-1.0265687 -0.054141453 -5.5103087e-20)
(-1.0102594 -0.16960964 4.2771922e-20)
(-0.97050492 -0.26911552 3.4205895e-20)
(-0.92773973 -0.36929967 0)
(-0.7788644 -0.47139391 0)
(-0.829522 -0.43817823 -1.3319849e-20)
(-0.62153372 -0.57056001 0)
(-0.71821621 -0.55298319 -3.7955829e-20)
(-0.34105789 -0.48369155 -1.707291e-19)
(-0.21786008 -0.36183003 0)
(-0.28634588 -0.44095977 1.4962021e-19)
(-0.15306692 -0.28210406 -6.5449345e-20)
(-0.44272227 -0.53486309 -9.563879e-20)
(-0.57057622 -0.5801487 0)
(-0.49425601 -0.55959974 2.3031925e-19)
(-0.10523671 -0.20841187 0)
(-0.064053902 -0.13777068 -1.1123394e-19)
(-0.037686852 -0.076942445 0)
(-0.0078914674 -0.0098559087 2.5857607e-19)
(-0.012884069 -0.027530933 4.3461436e-20)
(-1.1005009 0.51221933 0)
(-1.0632191 0.44369656 5.751246e-21)
(-1.0450393 0.37489454 -1.271334e-19)
(-1.0391294 0.29551746 0)
(-1.0393091 0.21527378 -1.6804522e-48)
(-1.0407736 0.13410644 1.2730467e-19)
(-1.0434032 0.053856954 2.9252712e-20)
(-1.0467904 -0.010005319 -8.7367773e-20)
(-1.0520878 -0.080651864 0)
(-1.052458 -0.12605253 0)
(-1.0145971 -0.23141402 -8.4385631e-20)
(-0.97463456 -0.32855787 0)
(-0.93136085 -0.42826019 0)
(-0.77354261 -0.52566816 1.0578702e-20)
(-0.87967336 -0.46864401 1.3750495e-20)
(-0.6523335 -0.63258393 0)
(-0.70929064 -0.61361612 0)
(-0.35634358 -0.53610416 3.562596e-19)
(-0.19412931 -0.37163803 7.2817766e-20)
(-0.25039021 -0.45859438 1.6645649e-19)
(-0.13328307 -0.2865873 0)
(-0.40284781 -0.56589978 -2.2129624e-19)
(-0.55997259 -0.61812143 -1.7154822e-19)
(-0.50486496 -0.61578703 8.187644e-20)
(-0.089361297 -0.20736242 0)
(-0.052215779 -0.13468262 -6.0853552e-20)
(-0.030059486 -0.073460979 1.1204211e-19)
(-0.0010375245 -0.001352326 -4.4850953e-19)
(-0.0095449495 -0.011282045 -6.7068799e-47)
(-0.01133319 -0.025207828 0)
(-1.1816666 0.48293689 0)
(-1.1202489 0.42954747 -6.876371e-20)
(-1.0898032 0.36848484 0)
(-1.0776842 0.29556961 -6.3660234e-20)
(-1.0757841 0.21879652 -6.3294761e-20)
(-1.0753636 0.13947137 0)
(-1.0771067 0.059557612 -6.4363371e-20)
(-1.0793702 -0.0093354626 7.9862934e-20)
(-1.0902658 -0.048112201 4.4752773e-20)
(-1.094517 -0.15404658 0)
(-1.0577207 -0.25003457 0)
(-1.0220614 -0.35050237 4.312572e-20)
(-0.98214547 -0.45801841 1.8621105e-20)
(-0.82298881 -0.56056652 3.1645461e-20)
(-0.8786544 -0.52600771 0)
(-0.63949174 -0.69779604 0)
(-0.76375235 -0.64459382 0)
(-0.32346467 -0.54726741 -1.0836804e-19)
(-0.15710893 -0.33078215 0)
(-0.20934727 -0.41396993 -2.4486941e-19)
(-0.2774209 -0.50681489 -1.1693884e-19)
(-0.10085979 -0.24478904 2.825003e-19)
(-0.42418599 -0.61381466 -1.7292529e-19)
(-0.59553591 -0.67803261 6.3380909e-20)
(-0.4767137 -0.63889826 1.5687844e-19)
(-0.063129393 -0.16548255 2.5863027e-19)
(-0.032750651 -0.098187293 -3.1246619e-19)
(-0.015587656 -0.044559153 0)
(0.0045219775 -0.00046017061 -2.4828031e-19)
(-0.0002766455 0.0014875276 -1.3882471e-21)
(-0.00028011249 -0.0056774497 0)
(-1.1994243 0.4337038 8.519376e-21)
(-1.1463138 0.39534875 7.0672586e-20)
(-1.1148735 0.32803491 0)
(-1.1010198 0.25659964 1.3049452e-19)
(-1.0963728 0.18076336 0)
(-1.0948253 0.10187145 3.1471346e-20)
(-1.0961723 0.023653231 -3.7742061e-20)
(-1.1248573 -0.053477762 -8.11777e-20)
(-1.0940638 -0.21669646 1.3251101e-20)
(-1.1285243 -0.12836012 0)
(-1.0624387 -0.30841329 3.7420682e-20)
(-1.0296435 -0.41371499 -3.9492516e-20)
(-0.98223942 -0.52046145 -1.782702e-20)
(-0.81750307 -0.61511576 0)
(-0.92309885 -0.56124727 0)
(-0.67191505 -0.72037596 0)
(-0.76116522 -0.68539985 4.2469589e-20)
(-0.34080916 -0.6007409 -3.010095e-19)
(-0.14141545 -0.33032615 -2.6709287e-20)
(-0.18408829 -0.41961742 -1.1970255e-19)
(-0.24690743 -0.51413512 1.4962341e-19)
(-0.083719492 -0.24067108 -1.1577079e-19)
(-0.38958831 -0.63735281 0)
(-0.54491367 -0.71480162 0)
(-0.49485198 -0.6941462 -1.6721748e-19)
(-0.055015349 -0.15685374 -2.5161038e-19)
(-0.025296019 -0.092464639 2.2516618e-19)
(-0.011868302 -0.038826736 1.7784669e-21)
(0.00048331119 0.0010137412 -7.5730447e-22)
(-0.0016933656 0.00019391196 1.744506e-19)
(-0.0013996645 -0.0042066382 0)
(-1.3020468 0.40658249 -1.8670129e-19)
(-1.2327667 0.37422117 0)
(-1.1746325 0.31626148 -7.6619606e-20)
(-1.1507227 0.25245378 -7.7621143e-20)
(-1.1422953 0.17743318 0)
(-1.1393205 0.10476276 0)
(-1.1347566 0.021119589 7.7400628e-20)
(-1.1373845 -0.083291979 0)
(-1.1528761 -0.01604506 4.6683526e-20)
(-1.1345604 -0.2308922 5.2747271e-20)
(-1.1598573 -0.15442401 4.3166231e-20)
(-1.1083831 -0.32185816 -4.2721788e-20)
(-1.0781093 -0.42334636 -1.9534071e-20)
(-1.0283764 -0.54180153 -2.9439136e-20)
(-0.85477141 -0.64941598 0)
(-0.91652427 -0.62160968 0)
(-0.73555548 -0.71579148 -3.6508831e-20)
(-0.64994195 -0.7600526 0)
(-0.79520532 -0.71224971 0)
(-0.30595933 -0.61324597 2.8780513e-19)
(-0.15309044 -0.3691561 0)
(-0.10802583 -0.28901091 -1.5842712e-19)
(-0.20357042 -0.46302505 -2.2096745e-19)
(-0.26174616 -0.56600331 -1.5000158e-19)
(-0.058432922 -0.19143805 0)
(-0.40585329 -0.69103496 -1.595827e-19)
(-0.56743831 -0.76856287 0)
(-0.4538921 -0.71948623 3.3638935e-19)
(-0.032761939 -0.11426105 7.6463478e-20)
(-0.011905098 -0.059908498 -1.5286203e-19)
(-0.002021128 -0.013475457 -2.168157e-19)
(-1.3934548 0.39072159 2.8329178e-21)
(-1.3351946 0.37312078 6.4214828e-20)
(-1.2463905 0.32593677 0)
(-1.1986513 0.27844623 1.5989646e-19)
(-1.1784547 0.21275823 0)
(-1.1697516 0.13802118 0)
(-1.1645288 0.067786701 -5.4327883e-20)
(-1.1812684 -0.085583432 0)
(-1.1937382 -0.017248262 0)
(-1.1661968 -0.19339411 -5.8752152e-20)
(-1.142926 -0.28042561 -3.4962949e-20)
(-1.1934535 -0.12426356 -4.9741872e-20)
(-1.1171589 -0.37510559 2.3318836e-20)
(-1.0856145 -0.46593685 1.2867105e-20)
(-1.0669651 -0.51696255 9.5866101e-20)
(-1.0194083 -0.59852862 3.7617096e-20)
(-0.83972485 -0.70120661 0)
(-0.95670047 -0.65313204 0)
(-0.73483413 -0.75455092 -7.2215553e-20)
(-0.62075812 -0.79470019 -4.0185128e-20)
(-0.70523391 -0.78058821 2.9579311e-20)
(-0.77688284 -0.7535722 5.2726483e-20)
(-0.31929757 -0.66863517 -4.1413109e-19)
(-0.12837564 -0.36227684 0)
(-0.099871727 -0.30151814 0)
(-0.17608346 -0.45705019 3.4417958e-19)
(-0.22702212 -0.56824316 0)
(-0.047694049 -0.17451063 -1.2091472e-19)
(-0.366207 -0.71077317 -8.7148587e-20)
(-0.52610527 -0.80317505 0)
(-0.47242193 -0.7743601 0)
(-0.024237454 -0.094249065 3.4503208e-20)
(-0.0047331133 -0.05376143 1.2474491e-19)
(-0.0015361752 -0.0085961264 -9.291433e-21)
(-1.5999699 0.3458175 -7.9903666e-20)
(-1.4073017 0.35049498 -3.950134e-20)
(-1.3319523 0.2982003 0)
(-1.2737367 0.26352103 0)
(-1.2425139 0.20403352 -4.8218127e-20)
(-1.2295001 0.13683404 -8.7892292e-20)
(-1.2154082 0.057162776 2.2344289e-20)
(-1.2120998 -0.054114306 1.0057289e-20)
(-1.2258426 0.0073946254 0)
(-1.210616 -0.20886407 2.6532382e-20)
(-1.1830519 -0.29194502 4.2006752e-20)
(-1.2288931 -0.13640062 0)
(-1.1658098 -0.38556139 0)
(-1.1318122 -0.47432072 1.0423862e-20)
(-1.0932362 -0.54551056 0)
(-1.0011799 -0.63329172 -1.5258983e-20)
(-1.0613382 -0.60891911 -1.4470729e-20)
(-0.87557033 -0.73624131 1.6549585e-20)
(-0.9386898 -0.70872582 -2.2282478e-22)
(-0.64012514 -0.85925317 -3.4527861e-20)
(-0.7243584 -0.82812483 -2.5286142e-20)
(-0.80442638 -0.79212148 -7.650637e-20)
(-0.27862982 -0.68254175 5.7838692e-19)
(-0.14176218 -0.39648424 1.3883455e-19)
(-0.085935427 -0.27966822 4.2544551e-20)
(-0.18794065 -0.50197049 1.5248744e-19)
(-0.23416775 -0.62784074 2.8713412e-19)
(-0.054956326 -0.2121482 1.247573e-19)
(-0.019966809 -0.1060476 -2.58264e-20)
(-0.38312366 -0.77023225 -1.1026927e-19)
(-0.54654043 -0.86003068 0)
(-0.43580312 -0.80184336 1.1694686e-19)
(-0.0051436881 -0.026319621 1.8572047e-19)
(-1.6142053 0.3097587 7.0904315e-20)
(-1.5562564 0.31472545 2.6082894e-20)
(-1.4122512 0.29726257 4.6142899e-20)
(-1.3345369 0.25894608 0)
(-1.2842956 0.22174701 4.9754829e-20)
(-1.2585289 0.16514586 -2.7998712e-20)
(-1.2579608 0.10913464 8.3906459e-20)
(-1.2505403 0.077201102 7.976115e-21)
(-1.2617287 -0.063704479 -7.0119566e-20)
(-1.277577 -0.0013012173 0)
(-1.2433554 -0.17958546 4.6842418e-21)
(-1.2183938 -0.253762 2.6784523e-20)
(-1.2006747 -0.34549603 0)
(-1.2619576 -0.11400111 9.8171613e-20)
(-1.1740294 -0.43312697 -4.1471199e-20)
(-1.1323723 -0.51852602 -1.0289476e-19)
(-1.0912144 -0.58305652 1.8306289e-20)
(-1.0167836 -0.67273736 -1.7742874e-20)
(-1.0569676 -0.65151631 -2.7010518e-20)
(-0.9181166 -0.73449293 -2.2517768e-20)
(-0.85235057 -0.79051351 0)
(-0.97508623 -0.72806225 1.8974126e-20)
(-0.60076693 -0.88882375 0)
(-0.69572673 -0.87082139 9.7198065e-20)
(-0.77840253 -0.83335465 7.3705393e-20)
(-0.29993138 -0.76082852 -6.3421011e-19)
(-0.11721338 -0.38264804 0)
(-0.089124907 -0.31483213 -4.9585291e-19)
(-0.15630835 -0.49408366 -2.981486e-19)
(-0.1973241 -0.62744998 -4.3402153e-19)
(-0.037719555 -0.18830284 -1.5434393e-19)
(-0.017617641 -0.091982369 -1.1221498e-19)
(-0.35084137 -0.80009195 2.0362503e-19)
(-0.50498122 -0.88882195 1.3107571e-19)
(-0.45752284 -0.85924388 0)
(-0.0011546014 -0.017324338 0)
(-1.8010243 0.23734975 -1.168051e-19)
(-1.6730642 0.25203836 0)
(-1.5407918 0.25750609 -1.02606e-19)
(-1.4438083 0.23377319 -1.0420918e-19)
(-1.3629603 0.20544568 -6.2981332e-20)
(-1.3140655 0.15683825 3.1161283e-20)
(-1.3263737 0.10250649 3.7828655e-20)
(-1.3045357 0.059644668 3.1613778e-20)
(-1.2821388 -0.053544612 2.105979e-20)
(-1.2986803 -0.031819324 -2.1109823e-20)
(-1.3074392 0.022321566 -2.1131192e-20)
(-1.2866147 -0.18456135 -3.0837341e-20)
(-1.2622337 -0.26507335 -1.1793151e-19)
(-1.2432357 -0.34951717 0)
(-1.3066847 -0.12532259 -8.3998461e-20)
(-1.2199077 -0.45776571 1.4517572e-19)
(-1.1626103 -0.53870016 0)
(-1.1211447 -0.60235379 0)
(-1.0077911 -0.70915765 2.5558182e-20)
(-1.0879623 -0.67713634 4.1783533e-20)
(-0.92367993 -0.77611147 -1.5385304e-21)
(-0.87625503 -0.83325985 1.9906398e-21)
(-0.96035879 -0.76666675 9.1235768e-21)
(-0.6112453 -0.94201912 1.1880267e-19)
(-0.7207141 -0.91217243 5.6040294e-20)
(-0.79704349 -0.87545496 0)
(-0.27085463 -0.77476425 1.8595562e-19)
(-0.12763276 -0.42300024 0)
(-0.067323944 -0.29249928 5.3543919e-19)
(-0.15762628 -0.53644928 1.6354366e-19)
(-0.19958941 -0.6680625 0)
(-0.020156746 -0.12176991 2.7413406e-19)
(-0.046385371 -0.22629345 0)
(-0.0045052235 -0.035669292 -2.076044e-19)
(-0.37949631 -0.85631481 -1.8902662e-20)
(-0.51777546 -0.93999853 -3.0891577e-19)
(-0.42368683 -0.88182968 2.4284566e-20)
(-1.9333398 0.2023245 2.0604437e-21)
(-1.8078751 0.21241347 3.4113371e-20)
(-1.6612649 0.23569967 1.1414889e-19)
(-1.5398403 0.22111468 1.2106068e-19)
(-1.4615019 0.1975698 -5.9776975e-20)
(-1.4108478 0.17033548 1.2780386e-19)
(-1.3633012 0.12042061 0)
(-1.3431776 0.073075651 -5.6126379e-20)
(-1.3265847 -0.070626795 0)
(-1.3471609 -0.035500734 -6.171108e-20)
(-1.3528244 0.014340471 7.3697508e-20)
(-1.3012567 -0.21357062 2.5064052e-20)
(-1.3198881 -0.15957803 -4.3614691e-20)
(-1.2868405 -0.25006708 7.7883524e-20)
(-1.2618631 -0.31377086 0)
(-1.254986 -0.37644135 0)
(-1.327169 -0.10389491 2.2672422e-20)
(-1.2463365 -0.44264043 0)
(-1.2046162 -0.51770889 -1.0466358e-19)
(-1.1534774 -0.58278128 -1.8744981e-20)
(-1.1214714 -0.65211223 0)
(-1.0315907 -0.73976121 2.3818289e-20)
(-1.0787493 -0.72028545 -8.0804876e-20)
(-0.91389266 -0.81690757 -9.5665646e-21)
(-0.84901018 -0.87356897 0)
(-0.98169332 -0.80011376 -2.1078589e-20)
(-0.5571261 -0.97230333 -1.3426066e-19)
(-0.65614368 -0.97966364 0)
(-0.69838505 -0.95993113 -1.0360307e-19)
(-0.76813407 -0.91365797 0)
(-0.29538547 -0.8439214 0)
(-0.22705104 -0.72738901 2.2692876e-19)
(-0.099613703 -0.40474234 0)
(-0.076668491 -0.3353799 -1.272229e-19)
(-0.12652433 -0.52079116 -1.7731643e-19)
(-0.16009215 -0.63867895 0)
(-0.011248984 -0.098321384 1.6354914e-19)
(-0.032220284 -0.20004036 0)
(-0.0025360886 -0.020059829 3.7978198e-19)
(-0.37130372 -0.89489278 -3.5326811e-19)
(-0.47632123 -0.96111823 2.6552625e-19)
(-0.43890783 -0.92914974 -1.0624358e-19)
(-1.9353752 0.22541944 8.1183002e-20)
(-2.068957 0.1309644 -4.6625006e-20)
(-1.9090894 0.16635131 6.8280211e-20)
(-1.7921601 0.17157352 0)
(-1.662513 0.17346367 -1.4677222e-20)
(-1.5666485 0.15413899 0)
(-1.4990125 0.12833695 -7.1815376e-20)
(-1.4488128 0.096278248 0)
(-1.398522 0.056528894 1.0742435e-20)
(-1.3535487 -0.059920393 -7.0221581e-20)
(-1.3719405 -0.018081189 5.298647e-20)
(-1.4111755 0.022229804 -4.8989623e-20)
(-1.3438827 -0.21832209 7.9121411e-20)
(-1.3580532 -0.16377637 3.0615189e-20)
(-1.31431 -0.27100968 -1.4949029e-19)
(-1.2904068 -0.31220187 7.1859847e-20)
(-1.2536768 -0.40776956 0)
(-1.2923661 -0.34501615 3.8256144e-20)
(-1.3731273 -0.11299345 -1.0301117e-19)
(-1.2687418 -0.46331147 0)
(-1.2356837 -0.54764285 5.6792353e-20)
(-1.1812282 -0.61047772 -1.5511259e-19)
(-1.1557304 -0.65540479 0)
(-1.0201549 -0.78779188 -2.391286e-20)
(-1.1083085 -0.75105814 4.116728e-20)
(-0.94811827 -0.83658458 1.7102216e-20)
(-0.86768894 -0.91583102 3.3361344e-21)
(-0.56046548 -1.0234899 1.7829659e-19)
(-0.64577268 -1.0351794 1.5123198e-19)
(-0.72965705 -0.99120596 2.0235172e-20)
(-0.78443228 -0.96546019 4.4433556e-20)
(-0.32921045 -0.89713352 -2.0002537e-20)
(-0.251559 -0.87466715 0)
(-0.22382002 -0.78324582 -3.2809062e-19)
(-0.10029623 -0.44955377 1.7084982e-19)
(-0.057395775 -0.31150257 0)
(-0.13400119 -0.56685172 -4.3101379e-19)
(-0.16239686 -0.68471684 0)
(-0.0042853332 -0.042864805 -1.4106726e-19)
(-0.017863143 -0.13518811 -5.7116981e-19)
(-0.039059622 -0.24385202 0)
(-0.39951793 -0.94235342 2.3516699e-19)
(-0.47928795 -1.0103168 0)
(-2.1850815 0.07662331 0)
(-2.0446405 0.093256688 1.0920289e-19)
(-1.889462 0.14646346 -4.9190121e-20)
(-1.7830939 0.14691792 0)
(-1.6587547 0.14414124 -1.6451383e-20)
(-1.5734543 0.1242551 7.2663966e-20)
(-1.5156653 0.098195897 0)
(-1.4614649 0.063413867 0)
(-1.3960335 -0.073155211 6.5169702e-20)
(-1.4250692 -0.035993463 -6.4343979e-20)
(-1.4719106 -0.0049404589 1.0538646e-19)
(-1.3610918 -0.2090179 0)
(-1.3411503 -0.25676004 -5.2236999e-22)
(-1.3634143 -0.18679371 0)
(-1.3805385 -0.14362146 1.7645523e-19)
(-1.3157371 -0.30016438 -8.8023068e-22)
(-1.2898325 -0.40614115 1.7800313e-19)
(-1.3188204 -0.35800508 -3.4644144e-20)
(-1.4029751 -0.099901843 0)
(-1.2730827 -0.49413977 0)
(-1.2904043 -0.43886913 -9.6167331e-20)
(-1.2625163 -0.52827251 0)
(-1.2167026 -0.602601 6.8696518e-20)
(-1.1713634 -0.6947861 -1.0678492e-19)
(-1.0442038 -0.81210429 -3.4437673e-20)
(-1.1489296 -0.74173884 1.0743026e-19)
(-1.0823672 -0.80069135 0)
(-0.95473216 -0.87192209 0)
(-0.82989896 -0.97175954 0)
(-0.915515 -0.92398008 -7.707389e-21)
(-0.51251305 -1.0436866 -1.8259156e-19)
(-0.59820165 -1.0549315 -1.505336e-19)
(-0.68183055 -1.0657389 0)
(-0.73865108 -1.0345287 -6.113872e-21)
(-0.33395334 -0.9530385 2.1393872e-19)
(-0.25745499 -0.88324646 3.0089839e-19)
(-0.18406062 -0.76384868 4.4677898e-19)
(-0.076422371 -0.42673571 2.8118057e-19)
(-0.057686549 -0.35681782 -8.4860925e-20)
(-0.10768624 -0.5430897 4.5643188e-19)
(-0.13234597 -0.65552137 0)
(-0.0014448783 -0.022729328 1.7086914e-19)
(-0.0093708659 -0.11066107 1.7812569e-19)
(-0.023756763 -0.2169224 0)
(-0.40177134 -0.98773259 -2.1042962e-19)
(-0.43550607 -1.022744 0)
(-2.2053974 -0.0048709062 6.9286166e-20)
(-2.0716626 0.06308866 -8.0591761e-20)
(-1.9833044 0.088006724 -3.3000853e-20)
(-1.8678988 0.091530659 6.5724932e-20)
(-1.7581464 0.094534693 8.9577774e-20)
(-1.6684399 0.082420174 -8.4551002e-20)
(-1.6002465 0.060910063 9.0544426e-20)
(-1.528809 0.031630505 0)
(-1.4292058 -0.064293585 0)
(-1.472365 -0.030226315 -5.7408885e-20)
(-1.5149274 -0.0026848794 -1.4480042e-20)
(-1.3851821 -0.2252916 -5.5200097e-20)
(-1.3651619 -0.26633973 -4.6450943e-20)
(-1.4002816 -0.19188329 0)
(-1.4148158 -0.15367747 -2.1298151e-19)
(-1.3438006 -0.3142031 0)
(-1.3107804 -0.39052967 -5.6243277e-20)
(-1.340202 -0.34079199 0)
(-1.4377847 -0.11613216 0)
(-1.2980635 -0.47634382 0)
(-1.3057143 -0.4470373 0)
(-1.2707795 -0.5589819 0)
(-1.22408 -0.63212876 -9.7811612e-20)
(-1.2188182 -0.67954534 0)
(-1.0344941 -0.86090394 1.0544846e-20)
(-1.1684056 -0.78009859 7.2265666e-20)
(-1.1070583 -0.83073222 8.0277119e-20)
(-1.0066599 -0.88637971 2.6924777e-20)
(-0.84886672 -1.0161842 -2.1059392e-21)
(-0.93004615 -0.97397973 -4.7589543e-21)
(-0.50718068 -1.0913911 -2.3411236e-19)
(-0.59251697 -1.1041415 2.0610831e-19)
(-0.67670949 -1.114166 0)
(-0.77883307 -1.0701404 0)
(-0.36266699 -0.99791588 -1.6782973e-20)
(-0.30757998 -0.98123307 1.8519066e-19)
(-0.26058706 -0.96061105 -3.0093462e-19)
(-0.19221733 -0.83412812 -5.5280552e-19)
(-0.15981432 -0.79656605 1.8619695e-19)
(-0.085977227 -0.47071707 2.3951111e-19)
(-0.04019991 -0.33528101 -2.2714829e-20)
(-0.11311861 -0.58691763 0)
(-0.12566527 -0.69600177 0)
(-0.0041753285 -0.047987591 2.1399204e-19)
(-0.013281991 -0.14871475 -2.6056714e-19)
(-0.025156124 -0.26584335 2.0071713e-20)
(-0.4257038 -1.0755165 0)
(-2.1377071 -0.025729931 -9.0236223e-20)
(-2.1045398 0.01493929 0)
(-1.9800933 0.059103035 6.8091591e-20)
(-1.9442698 0.059361591 0)
(-1.8349823 0.075157645 -1.4690458e-19)
(-1.7442517 0.069691597 1.0279379e-20)
(-1.6672673 0.057170523 9.7523834e-20)
(-1.6073943 0.035508716 -1.2801991e-19)
(-1.5790443 0.019731467 1.5131104e-20)
(-1.4679731 -0.083156054 8.1148784e-20)
(-1.5115785 -0.054923877 0)
(-1.5639417 -0.029517739 1.7380178e-20)
(-1.3829466 -0.24951811 4.8273661e-20)
(-1.4084639 -0.21175792 2.7275394e-21)
(-1.3646201 -0.29643659 8.290191e-20)
(-1.4188094 -0.17770694 1.4281887e-19)
(-1.4384543 -0.14081317 4.4212464e-20)
(-1.3281408 -0.40256599 -2.3448835e-20)
(-1.3549159 -0.35412088 0)
(-1.4643386 -0.10709921 -3.9921135e-20)
(-1.3053442 -0.48404354 1.7114225e-19)
(-1.3196731 -0.43120142 0)
(-1.2827848 -0.53869496 0)
(-1.2567921 -0.60155577 9.9912883e-20)
(-1.2233595 -0.70088641 -1.0956974e-19)
(-1.0748818 -0.86974427 -5.6808838e-20)
(-1.1956376 -0.7739669 0)
(-1.1371109 -0.83038552 -1.5433388e-19)
(-1.0086699 -0.9398043 1.3289682e-19)
(-0.89837846 -1.0170577 1.4383878e-20)
(-0.82438223 -1.0604376 0)
(-0.97634857 -0.97818817 -6.6391753e-20)
(-0.46135031 -1.1134167 4.7281725e-19)
(-0.54534863 -1.1239296 -3.1772447e-19)
(-0.6290395 -1.1360482 4.7134367e-20)
(-0.71170435 -1.1444582 0)
(-0.75731361 -1.1273039 4.2361725e-20)
(-0.34349812 -1.0444185 0)
(-0.2997129 -1.0528892 0)
(-0.19935614 -0.99518564 -6.3692728e-21)
(-0.17814304 -0.8750331 1.66642e-21)
(-0.13688229 -0.75337586 -1.8263365e-19)