/*--------------------------------*- C++ -*----------------------------------*\
| =========                 |                                                 |
| \\      /  F ield         | OpenFOAM: The Open Source CFD Toolbox           |
|  \\    /   O peration     | Version:  2112                                  |
|   \\  /    A nd           | Website:  www.openfoam.com                      |
|    \\/     M anipulation  |                                                 |
\*---------------------------------------------------------------------------*/
FoamFile
{
    version     2.0;
    format      ascii;
    arch        "LSB;label=32;scalar=64";
    class       surfaceScalarField;
    location    "0.335";
    object      phi;
}
// * * * * * * * * * * * * * * * * * * * * * * * * * * * * * * * * * * * * * //

dimensions      [0 3 -1 0 0 0 0];

oriented        oriented;

internalField   nonuniform List<scalar> 
11836
(
-0.00058279304
-0.00010770272
-0.00047509032
0.00058153852
-0.00068924124
3.1480386e-05
-0.0005065707
-0.00023335758
-0.00014455778
-0.00054468346
0.0002547145
-0.00022323411
-8.4583777e-05
-0.00042198693
0.00057492595
-0.00080828352
0.0005778057
-0.00072236348
-0.00062926724
-0.00022323411
2.8039857e-05
-0.00045002679
-9.1283434e-05
-0.00023047782
-8.4262075e-05
-0.00063810141
-0.00013537009
-0.00049389715
-0.00019519426
-8.0088932e-05
-0.00036993786
-0.00054899245
-0.0007412407
0.00051076288
0.00054769089
-0.00063195296
-0.0007734715
-0.00057398608
-0.00019519426
2.7353802e-05
-0.00039729166
-0.00060850918
5.9516729e-05
-0.00019354981
-9.7746301e-05
1.9831852e-05
-0.00065178481
-0.00025158874
-0.00052188276
-0.0001380422
-0.00043594388
-0.00016784046
-7.2796368e-05
-0.00032449529
0.00048473532
-0.00042521859
-0.00057828361
0.00038473379
0.00041099725
-0.00050874355
0.00049739828
-0.00047756643
-0.0005146756
-0.00013710921
-0.00076626434
-0.00065992496
-0.00050874025
-0.00016784046
2.4536191e-05
-0.00034903148
-3.2350563e-05
-1.4221346e-05
-8.0885324e-05
0.00054071515
-0.00015598135
3.1971601e-05
-0.00041556551
-6.2000927e-05
-0.00055267472
-0.00022026904
-0.0005459953
-0.00019073054
-0.00046919443
-0.0001160177
-0.00039272256
-0.00014330427
-6.1409955e-05
-0.00028762153
-0.00051229981
0.00046345435
-0.0004776757
-0.00053719215
0.00045630683
-0.00051605046
0.0003600691
0.00044329394
-0.00041132234
0.00046609266
-0.00052809359
-0.00055491467
2.2399539e-06
0.00038441808
-0.00060468712
-0.00073672583
-0.00058521212
-0.00045413251
-0.00014330427
2.0707833e-05
-0.00030832936
-4.8845456e-05
-3.4381753e-05
-7.1099486e-05
-5.9743632e-05
-5.125324e-05
-0.00044835673
-7.9736868e-05
-0.00017049659
-0.00044611677
-0.00055998991
-4.4697212e-05
-0.00027553585
-0.00046118998
-0.00014901305
-0.00043619907
-8.8764897e-05
-0.00036536761
-0.00012259644
-4.7794915e-05
-0.00026053445
0.00046923067
-0.00051807613
0.00045287458
-0.00048725633
0.00054422467
-0.00061532416
-0.00052395855
0.00046421492
0.00044098148
-0.00049223472
0.00045398763
-0.0005337245
0.00034726185
-0.00051775844
-9.8854926e-05
-0.00034219465
-0.00021779526
0.00040851816
-0.00045321537
-0.0006177305
-0.00061020303
-0.00052496397
-0.00041316253
-0.00012259644
1.6395917e-05
-0.00027693036
-9.2226914e-05
-6.5201544e-05
-4.6274859e-05
2.0266115e-05
-0.00016133653
-2.8019798e-05
-0.0004202145
-0.00011351
-0.00010924028
-0.00051906943
0.00033857148
-0.00055636674
-0.00011464389
-0.00045610828
-0.00016162222
-0.0001414078
-0.00046879523
-9.5597038e-05
-0.00042936693
-6.0996159e-05
-0.00035216637
-0.00010620052
-3.3577087e-05
-0.00024335328
-0.00054512213
0.00045627195
-0.0005214735
0.00045605522
-0.00050233008
0.00049199182
-0.00047172571
0.00039515884
-0.00055649537
0.00046524429
-0.00049326409
0.00043339696
-0.00054690696
0.00041412866
-0.00052336894
-0.00010494077
-0.0004256404
-0.00013072634
0.0004198207
-0.0005344646
-0.00059751608
-0.00058726262
-0.00056439227
-0.00049036309
-0.00038574345
-0.00010620052
1.1767168e-05
-0.00025512044
-8.8850178e-05
-6.5418274e-05
-3.7085792e-05
-1.2722643e-06
-0.000539573
6.7847291e-05
-0.00014441416
-0.00012309841
-0.00043637047
-0.00011053648
-0.00010354824
-0.00054131124
0.0004331682
-0.00056389454
-0.0001012964
-0.00051449462
-8.3021456e-05
-0.00050238828
-8.4874338e-05
-7.0149721e-05
-0.00049424255
-5.188772e-05
-0.00043847537
-3.3159506e-05
-0.00035258395
-9.4433355e-05
-1.7444512e-05
-0.00023767593
0.00044474881
-0.00053359899
0.00044689074
-0.00051230902
0.00045497221
-0.000492058
0.00046325846
-0.00046453072
0.00046523726
-0.00039738996
0.00038072788
-0.00052514203
0.00044248406
-0.00056558247
0.00044959969
-0.00056013617
0.00043962541
-0.00054317364
-0.00010168584
-0.00048887139
-7.502315e-05
0.00045235195
-0.00055364834
-0.00058464434
-0.00058540974
-0.00057374572
-0.00054613027
-0.00047163488
-0.00037002846
-9.4433355e-05
5.7114721e-06
-0.0002433874
-0.00011531986
-8.6708244e-05
-5.7336809e-05
-2.8799545e-05
7.0653622e-07
-1.6662089e-05
-8.2657975e-05
-0.00011598278
-0.00045302312
-0.00010711305
-9.0821693e-05
-0.00055470896
0.00048688601
-0.00056190916
-6.6762337e-05
-1.2844467e-05
-0.00057179988
-0.00056798903
-1.7420706e-05
-0.00053986081
-3.3884916e-05
-2.5360798e-05
-0.00052076947
-1.5547917e-05
-0.00045608696
-4.0705609e-06
-0.0003659579
-8.8721883e-05
3.8859675e-06
-0.00024727337
-0.00054320579
0.00043047769
-0.00051718594
0.00043625473
-0.00049359153
0.00044468246
-0.000473482
0.00045013502
-0.00044942848
0.00045302232
-0.0004696844
0.0005266865
-0.00060934448
0.00046688523
-0.00058286802
0.00045713331
-0.00056424636
0.00046573577
-0.00055655747
-8.8973186e-05
-0.0005313549
-3.0554252e-05
0.00048772978
-0.00055449211
-0.0005808335
-0.00059716067
-0.00055728151
-0.00056523982
-0.00053631738
-0.00046015752
-0.00036207193
-8.8721883e-05
-5.1133825e-06
-0.00024215999
-0.0001127281
-8.0931213e-05
-4.8909078e-05
-2.334698e-05
3.5938317e-06
5.7002097e-05
-0.00014245924
-0.00012573471
-0.00046672784
-9.7518518e-05
-6.8827689e-05
-0.00055570103
0.00051965326
-0.00055020751
-3.4838851e-05
0.00013678644
-0.00071761994
7.4982454e-06
-0.00060465892
-0.00054003702
-1.7244495e-05
-0.00059238732
2.7147502e-05
1.026492e-05
-0.0005465823
2.3846371e-05
-0.00048400389
3.322541e-05
-0.00039529734
-9.3835265e-05
3.905015e-05
-0.00028121014
0.00040160592
-0.00051433402
0.00041236851
-0.00049329973
0.0004202999
-0.00046920898
0.00042820784
-0.00045155482
0.00043558885
-0.00043199501
0.00045370839
-0.00039670629
0.00047603355
-0.0006184928
0.00044194921
-0.00056768392
0.00045537352
-0.00055289204
0.00048439125
-0.00055321894
-7.1309775e-05
-0.00055680567
6.5981576e-06
0.00050815937
-0.00054299822
-0.00040325057
-0.0007101217
-0.000594394
-0.00060963181
-0.00052965817
-0.00052273593
-0.00045077848
-0.00035624719
-9.3835265e-05
-3.7588995e-05
-0.00024362114
-0.00014059298
-0.00010196551
-7.2999825e-05
-4.1001141e-05
-1.5965972e-05
2.1713377e-05
-0.0004902505
9.3544206e-05
-1.4216944e-05
-0.00017654358
-0.00011231039
-0.00047650292
-7.6389125e-05
-4.505957e-05
-0.00054781269
0.00053808952
-0.00053149136
-4.9086988e-06
0.00037693731
-0.00078018788
-0.00064549725
-6.4624449e-05
2.2808313e-05
-0.00061720231
-0.00023269451
7.4063508e-05
-0.00060372167
5.6565034e-05
-0.00057930096
7.0155069e-05
-0.00052093355
8.0344941e-05
-0.00043659213
-0.00013142426
9.0576982e-05
-0.00033419812
0.00035264558
-0.00049323856
0.00038289392
-0.00048485943
0.00039245712
-0.00046545694
0.00040077149
-0.00044177263
0.00040841363
-0.0004243796
0.00041179175
-0.00039007838
0.00039674146
-0.00030319725
0.00030107917
-0.00031529611
0.00036999291
-0.0005465365
0.00041958709
-0.00053189748
0.00046267903
-0.00053906816
0.00049502865
-0.00054008821
-5.2784044e-05
-0.00054466155
1.3170191e-05
0.00051575591
-0.00052066461
-0.00062000111
-0.00016018677
-0.00062268893
-0.00068462556
-0.00056063728
0.0004230335
-0.00065572801
-0.00047059804
-0.00018068817
-0.0005091459
-0.00044058861
-0.00034601515
-2.0313492e-05
-0.00011111077
-8.5651561e-05
-0.00024854656
-0.00010100112
-0.00011034464
-9.2402311e-05
-6.4685457e-05
-3.3359e-05
-1.2587847e-05
6.6630803e-06
-2.118081e-06
-0.00059151971
0.0002762236
-0.0002215268
-0.00012694941
-6.9218445e-05
-0.00048852063
-5.0547527e-05
-2.4332299e-05
-0.00054130467
0.00057567443
-0.00056250424
5.5009824e-05
0.00052286491
-0.00068305167
-0.0006390171
1.6328168e-05
-0.0006377706
-4.6854956e-05
9.6863891e-05
-0.00065750117
-0.0001328631
-0.00041749992
-5.3098127e-05
-0.00059818809
0.00012000291
-0.00062914881
0.00010910777
-0.00054969638
0.00013696818
-0.00048298333
-2.0313492e-05
-0.00019676233
0.00015665875
-0.00040520531
-0.00046742121
0.00036828399
-0.00047862863
0.00036285926
-0.00045526157
0.00036961776
-0.00043430322
0.00038069407
-0.00041405307
0.00039128623
-0.00040387408
0.00038089327
-0.00037423019
-0.00034013745
0.00033801937
-6.3913847e-05
-0.00047189733
0.00025037053
0.00035832209
-0.00048527149
0.00042492299
-0.00049414143
0.00050788536
-0.00055843289
0.0004906243
-0.0005149566
-5.0680374e-05
-0.0005663272
3.8229565e-06
0.00048023416
-0.00042522434
-0.00061850073
-6.4550947e-05
-0.00054215321
-0.00062144243
-0.00066535568
-0.00053749825
0.00049830369
-0.00063116679
-0.00061942533
-9.9884393e-05
-0.00052004104
-0.00041272819
-0.00032632458
-2.0313492e-05
-3.9874004e-05
-0.00015688832
-0.00013527863
-0.00026992669
-9.9137218e-05
-0.00011576936
-8.5643814e-05
-5.3609145e-05
-2.2766839e-05
-2.2980809e-05
-3.6210818e-05
-0.00039441371
0.00033049986
-0.00011357524
0.0003943162
-0.00014394567
-6.0348505e-05
1.3743931e-05
-0.0004963929
-6.2039983e-05
-3.4722432e-05
-0.00054707328
0.00034966379
-0.00034584083
-0.00045815116
3.292682e-05
0.00058545033
-0.00065000128
6.8848381e-05
-0.00061100159
-0.0006237262
2.2837667e-06
-0.00065605096
-9.3047172e-06
0.00029275552
-0.00083025377
-4.5716462e-05
-0.0004918035
-0.00012762183
-0.00059168789
0.00011790314
-0.00063794418
0.00011432389
-0.00052705208
0.0002473557
-0.00057368028
0.00023044209
0.00040781078
-0.00050694799
0.00032673755
-0.00044250691
0.00033210551
-0.00041774933
0.00034580019
-0.00039940934
0.00036475826
-0.0003875251
0.00040517106
-0.00042815187
-0.00037903068
0.00034281986
-9.7505863e-08
-4.8530816e-05
0.0003114985
-0.00042507374
-0.00038536632
0.00024142065
0.0003812587
-0.0004416072
0.00042045979
-0.00040671585
0.00032844077
-0.00039048076
0.00046414491
-0.00049886734
-8.2928372e-05
-0.00010848737
-0.00058345289
0.00023761206
0.00037656049
-0.00034363367
-0.000670307
2.0305721e-05
-0.00055487782
-0.00031824607
-0.0006537672
-0.00067961172
-0.00071235063
0.00054461634
-0.0005903328
0.00043730068
-0.00056492251
-4.7071547e-05
-0.00052362029
-0.00027969638
-0.00034323819
-8.8127841e-05
-0.00018021045
-0.0001104014
-7.1949133e-05
-3.4651074e-05
1.7645959e-05
-8.5332011e-05
-0.00029825972
0.00029816222
-0.00038301577
0.00033448496
-7.3867817e-05
-4.3815042e-05
-5.6839074e-05
-2.1147415e-05
-0.00042524578
1.8529923e-05
-9.6805001e-05
-0.00039719217
6.711418e-06
-0.00012230685
0.00029890943
-0.0003818378
-0.00037248902
0.00026400165
-0.00014615221
-0.00013487696
-7.9632018e-05
0.00064795219
-0.00062764647
-0.00052119819
-3.3679626e-05
-0.00083944426
-0.0006655582
1.1791008e-05
-0.00070850388
2.8892168e-05
8.6042599e-05
-0.00079839323
5.7619384e-05
-0.00048052352
-8.4398988e-05
-0.00052759507
-0.00052793206
4.3117776e-06
-0.00080762845
0.00034155479
-0.00038560122
0.00021688554
-0.00039709599
0.00028047042
-0.00039087181
0.00030378331
-0.00037573245
0.00032178125
-0.00035643232
0.00033831961
-0.00032067365
-0.00035175441
0.0002664224
-8.4853552e-05
-1.7269457e-05
0.00032174852
-0.00039561633
0.00032024123
-0.00036405627
-0.00032468747
0.0002678484
0.00043943177
-0.00046057918
0.00034208093
-0.000323551
0.0002360471
-0.0003328521
-9.8282741e-05
0.00029185776
-0.00028514634
0.00027076357
-0.00039307042
-0.00036819858
-1.3639224e-05
-0.0005641867
0.00041803449
-0.00044507071
0.00031019376
0.00031633964
-0.00039597166
-0.00079773413
0.00017008766
-0.00069923783
-0.00084839032
8.9460643e-06
-0.00069671287
-0.00076884196
-0.00076234772
-0.00079408146
0.00054968747
-0.00049206809
0.00041036067
-0.00049475966
2.2092402e-05
-0.00046607366
-0.00035876185
-2.6839372e-05
-0.00014187631
-0.00011662557
-8.70885e-05
-5.3951197e-05
-1.8112716e-05
-0.00035093537
3.0261719e-05
-8.4512964e-05
-0.00030296623
0.00021811268
-0.00027596804
0.00025869859
-2.9389515e-06
-7.53751e-05
7.5375493e-05
-3.5117834e-05
-0.00011849825
-8.7503901e-05
-4.0994342e-05
0.00023919392
-0.00033747666
-4.5952419e-05
-9.743501e-05
-7.6730776e-05
0.00026916678
-0.000282806
-0.00015382603
-2.7036219e-05
-8.5777901e-05
0.00072944833
-0.00055936066
-0.00074685877
4.762094e-05
-0.00073791271
-0.00073743269
4.0719821e-05
-0.00071829729
-5.0544672e-05
-0.00093508314
0.00017273542
0.00021479359
-0.001008875
0.00023738024
-0.00044227313
-5.2486531e-05
-0.00042018072
0.00037936443
0.00024350392
-0.00027034329
0.00018429169
-0.000326168
0.00023589962
-0.00035252518
0.00026041391
-0.00034750241
0.00028034727
-0.00033429847
0.00029581619
-0.00031392891
0.00028688584
-0.00025662412
-0.00029678105
0.00021226808
0.00029346246
-7.5349777e-05
1.7494414e-05
-3.808246e-05
-0.00029656384
0.00029362489
0.00020734983
-0.00028272493
0.0002477703
-0.00017239481
-0.00026637968
0.00023126185
0.00027472981
-0.00039322806
0.00024382337
-0.00033132727
0.00021581831
-0.00025681266
-6.8309882e-05
0.00033088851
-0.00037684093
0.00019163184
-0.00028906685
0.00036036083
-0.0004370916
-9.1174166e-05
-0.00046579715
0.00031197112
-0.00033818774
0.00031115152
0.00031681043
-0.00040258833
0.00015276566
-0.00071212632
-0.00068981175
-0.00088351309
0.00014560038
-0.00067757747
0.00060668512
-0.00065722979
-0.00072028955
-0.00071077767
-0.00062951062
0.0004472239
-0.00020984366
0.00036771707
-0.0004202036
2.7043176e-05
0.00032368449
-8.0180568e-05
-8.6051604e-05
-9.0268383e-05
-9.2111273e-05
-6.7155137e-05
-3.848228e-05
-2.704307e-05
-4.4356034e-05
-0.00025223077
0.00017688099
-0.00020519796
0.00022269237
-0.00026202609
0.00022394363
-0.00028759881
-8.9650263e-06
2.7245203e-05
-8.024898e-05
-3.4954631e-05
-0.00033199934
0.00015960453
-2.0968917e-05
0.00032185725
-4.7127441e-05
-0.0001494047
-0.00011550895
7.4075854e-05
0.00025744593
-0.00032575581
-0.000119395
7.1293982e-05
-0.00012028117
0.0002548713
-0.00034604546
-9.8080084e-05
0.00050048219
-0.00018851108
0.00016229445
-9.1436809e-05
0.00067215209
-0.00051938643
-0.0001054412
-0.00081510147
0.00012528971
-0.00066950108
-0.00075649661
7.8919144e-05
-0.00068273955
2.5509763e-05
-0.0010289061
0.00030861655
-0.00099231351
0.00028153585
0.00035279557
-0.00055167409
0.00034183043
-0.00038654264
-3.3660958e-05
-0.00035949946
0.00023858724
-0.00031876781
0.00015476054
-0.00024081214
0.00023665328
-0.00032692166
0.00022290524
-0.00031501651
0.0002405621
-0.00030771724
0.0002577739
-0.00029625618
0.00028693343
-0.0003139765
-0.00027781427
0.00023345823
-2.8316968e-05
-3.9333718e-05
-5.3870635e-05
0.00018878198
-0.000197747
-0.00019685444
0.00022409964
0.00016536762
-0.0002456166
-0.00022869816
0.00019374352
-1.0142086e-05
-6.9093627e-05
-0.00022290786
0.00020193894
-0.00021391629
0.00016678885
0.00020063071
-0.00035003541
-0.00030552349
0.00019001453
-0.00023144763
-7.0884515e-05
0.00022674351
-0.0003461385
-0.00027475148
-0.00040484738
0.00028456621
-0.00039557578
0.0002974957
-0.00041212121
0.00022361014
0.00040342962
-0.00024113517
0.00031199282
0.000120478
-0.00048136664
-3.8019787e-05
-0.00058680784
-0.0006312069
-0.00091810593
0.00024860485
-0.00060382041
0.0005953361
-0.00056982633
-0.00067611053
-0.00068369697
-0.00063657009
-1.7669028e-05
0.00034793822
-0.00038159918
-5.193652e-05
-0.00016400728
-4.1588588e-06
-0.00010401642
-7.445441e-05
-4.9943338e-05
-9.322751e-06
-8.0518268e-05
-0.00021953443
0.00019121746
-0.00023024302
0.0001909093
-0.00027116454
0.0002172939
0.00023126179
-4.2479815e-05
-3.2379384e-05
3.4407355e-05
1.1917807e-06
-5.1873076e-05
-0.00020189652
0.00019175443
-0.00025003978
0.00018094615
-1.7595486e-05
-0.00036338645
0.00014947015
-3.5107664e-05
-0.00016275574
-0.00016002087
-0.00044649884
0.00021505121
0.00021226743
-0.00028315195
-0.00021975533
-0.00013387107
-0.0004407773
0.00016602582
-9.2854565e-05
-0.00015621109
-4.7637563e-05
-0.00011462552
0.00039590126
-0.00017229112
0.00015476608
0.00039574701
-0.00027526901
0.00049167506
-0.00052969484
8.5282549e-06
-0.00082326735
0.00019206046
-0.0005746625
-0.00073395341
0.00013013301
-0.00066149272
9.1666385e-05
0.0004192858
-0.0010933542
0.00040965722
-0.0010484539
0.00041188378
0.00036788376
-0.00038555279
-1.3715415e-05
-0.00028875969
-0.00020278587
3.877859e-05
-0.00020694472
0.00016195579
-0.00026597222
0.00019917437
-0.00027362878
0.00021294793
-0.00026289127
0.00022701039
-0.00023633314
-0.0002485448
0.00016802653
-3.9025559e-05
-8.0255235e-05
-3.1250896e-05
-0.00019234663
0.00014986681
0.000177484
-0.00020986338
-0.00015660774
0.00019101509
-0.00019055188
0.00019174366
-0.00026375031
0.00021187724
-5.8285342e-05
-8.2804166e-05
-0.0002000783
0.00018248282
0.00018965891
-4.0188762e-05
0.00015455125
0.00018912285
-0.00035187859
-0.00035085462
0.00019083375
-0.00013580342
-0.00037194086
8.8788906e-05
0.00011646065
-0.00033621598
-0.00028566014
0.00015178907
-0.00020591504
0.00026664251
-0.00035949707
-0.00036531143
0.00020910034
-0.0003393602
0.00029172263
-0.00035017292
0.00023554741
-0.00035092668
0.00017863556
0.00037463039
-0.0002198643
1.019422e-05
-0.00061733967
0.00034207067
-0.00012566462
-0.00052934677
-3.4807225e-07
-0.00052081851
-0.00054189295
-0.00091452707
0.00033986457
-0.00053135971
0.00059940074
-0.00050773436
-0.00067406838
-0.00063879665
-0.00050264329
0.00036994459
-0.00038366
-0.00023372522
-5.5034461e-05
-0.00019494663
-0.00022864816
2.1703438e-05
-6.6692367e-05
-6.6797845e-05
-6.068085e-05
-3.5880879e-05
-0.00023875551
2.4223686e-06
-7.0728981e-05
-0.00020499862
0.00016597306
-0.00020788898
0.00012763375
0.00016223364
-0.00019348453
-1.4862626e-05
-6.7409269e-06
2.0138532e-06
4.6321123e-07
-8.3346407e-06
-0.00021258639
0.00015430105
-0.0002439048
0.00016110063
-2.2515802e-05
0.0001364486
-0.00017663737
-5.8035141e-05
0.00025933247
-7.0209617e-05
-0.00016104484
0.00019884476
-0.00033464818
-0.00019687123
0.00028780703
-0.00017134638
-0.00018442692
-0.00036108603
0.00015517099
-9.866892e-05
1.5133316e-05
-0.00015198569
3.058439e-05
-5.8450291e-05
-0.00011537927
0.00033732476
-0.0001586892
0.00011746046
-0.00034717732
0.00035737154
-5.1066497e-06
0.00034250765
-0.00046817227
0.0004568555
-0.00045720357
7.8582232e-05
-0.00076723111
0.00022533815
-0.00042736654
-0.00069775157
0.00016639187
-0.00064899234
0.00014125798
0.00051064057
-0.0011692945
0.0005304978
-0.0011744321
0.00067178881
-2.6288465e-05
0.00012117504
-0.0001762095
-0.00017646644
-1.8480198e-05
-0.000154763
0.00013261605
-0.00019930841
0.00017877167
-0.00024556952
0.00016868392
-0.00022936477
0.00018129791
-0.00021717879
0.00017930673
-0.00017688436
-0.00020004506
0.00012931608
-4.1915921e-05
0.00018864883
-6.1015084e-05
-3.781142e-05
-4.8357048e-06
-0.00018157009
0.00016670746
-0.00017469384
0.00016795291
0.00017816077
-0.00017614692
-0.00017369839
0.0001741616
-0.00018266117
0.00017432653
-8.9603751e-05
0.00020025106
-3.9150424e-05
-0.00018423655
0.00016172075
0.00018870825
-5.2259649e-05
8.26951e-05
0.00013067311
0.00012365905
-0.00019386866
-0.00030243785
0.00014139301
-0.00010359309
-4.6841143e-05
-0.00033149131
0.00013462008
-0.00033166859
0.00016032221
-0.00031335632
0.0001289294
-0.00017632033
-0.00030173687
0.00020306795
0.00021744348
-0.00020231016
-0.00033028829
0.0001783026
-0.00023170756
0.00026229195
-0.00029154672
0.00023309643
-0.00030422698
0.00018884772
-0.00030594043
0.00014725123
0.00029304289
-0.00017558244
-0.00034168602
0.00033657937
0.00041620797
-7.370032e-05
-1.1316773e-05
-0.00054294692
8.5743354e-05
-0.00046436469
-0.00047241342
-0.00072327519
0.00029590866
-0.00048260047
0.00061212275
-0.00047086477
-0.00065865388
-0.0006439343
-5.1486384e-05
-0.00036637681
0.00034008835
-4.8508921e-05
-0.00013639688
-3.9812623e-05
-0.00015487708
-2.2146952e-05
-2.0536741e-05
-7.6885601e-05
-4.8066861e-05
-3.7872057e-05
-4.7568285e-05
-0.00017661737
0.00013470145
-0.00016563714
0.00010462206
0.00013260671
-0.00017041813
-0.0001394227
0.00013458699
-3.4093179e-06
-7.9863792e-06
-5.7454766e-06
2.410414e-05
-8.4995706e-06
-9.910023e-06
-0.00019591564
0.00010631189
-0.00016259395
0.00012344353
-1.4896616e-05
-0.00016742374
0.00011516409
-8.4728642e-05
-6.5242526e-05
0.00018978913
-6.6130085e-05
-0.00026238374
6.8515075e-05
-0.00012099073
0.00015352836
-0.00025712145
-0.00023686172
0.00019002058
-0.00017873623
-0.00020273919
-7.6539515e-05
-0.00032671598
0.00015039565
-8.429339e-05
-0.00012722034
9.0732731e-05
-0.00014841337
-0.00024857346
1.6865901e-05
-2.9254775e-05
-7.1130554e-05
-0.00011709271
0.00029379046
-0.00014653924
0.00011820803
7.4521956e-05
-2.9797441e-05
-0.00038901811
0.0003153178
0.00037065272
-0.00038196949
0.00044770982
-0.00036196647
0.00014775806
-0.00069675928
0.00022434586
-0.00040085063
-0.00066621443
0.00018361396
-0.00065215106
0.00018128629
0.00059158936
-0.0012303249
0.00058639063
0.0006960697
-0.00074755608
9.1514886e-05
8.5351813e-05
-0.00013386073
8.444883e-05
-0.00012426145
-0.00012863511
-2.6241965e-05
-0.00015078206
0.00013199564
-0.00015253239
0.0001028704
-0.000179756
0.0001397482
-0.00018781506
0.00016338233
-0.00020125438
-0.00017782705
0.00013025876
-3.0935694e-05
-3.480064e-05
-4.5220339e-05
-3.5831134e-05
0.00015545692
-0.00015886624
-0.00016699924
0.00015901286
-0.00016521115
0.00015946567
-0.00012946428
0.00015356842
-0.00016455165
0.00015605208
-0.00017865582
0.0001687458
0.00017090723
-6.4595343e-05
8.3132825e-06
-6.0207542e-06
-0.00014698148
0.00013208486
0.00017805353
-6.2889441e-05
0.00010506049
0.00011281101
-0.00016432115
9.8191067e-05
-9.5806079e-05
-0.00023549264
0.00011450192
-8.1964287e-05
-6.7100867e-05
-0.0003077662
0.00012902997
-0.00027763358
7.4894399e-05
-0.00026251746
0.00018597795
-0.00015737055
-0.00025108331
0.00016678992
-0.00030134626
0.00017412592
-0.00016035058
-0.00030905888
0.0001606455
-0.00017748269
0.00019434859
-0.00026470222
0.00023544744
-0.00025409455
0.000182964
-0.00027102995
0.00015393724
-0.00027257648
0.00012603724
0.00028587929
-0.00016767126
-0.00025094295
0.00032546491
-0.00025580156
0.00022600412
-1.8365396e-05
6.4374844e-05
6.5740332e-05
-0.00059584246
0.000233876
-0.0004480844
-0.00044186857
0.00029521907
-0.0004685371
0.00061489928
-0.00043361298
-0.00063873557
0.0012052458
-0.00061885513
0.00045768968
-8.5967802e-05
-1.1127934e-05
-4.9411904e-05
-9.6124676e-05
-2.8136777e-05
-0.00012236664
-1.8786418e-05
-0.00015305212
5.1973332e-07
-5.0181723e-05
-4.0007798e-05
-2.4432733e-05
-7.0995623e-05
-0.0001458856
0.00011494991
-0.00014347934
0.0001086787
0.00011877126
-0.0001639916
-0.00014441026
0.00010857912
-1.1542318e-05
-5.2978177e-06
-6.1982884e-06
-5.0859842e-06
-2.2603736e-05
2.1764319e-05
-0.00017642403
0.00011182869
-0.00011842268
0.00012673596
-0.00013337655
0.0001273558
-1.3800743e-05
-0.00018441123
0.00012152179
-7.9350744e-05
-6.3613025e-05
0.00015832369
-6.0132624e-05
-0.00020535554
0.00010954946
-9.0853627e-05
0.00012540831
-0.0002073726
-0.00020825108
0.00014115021
-0.00014860362
0.00023022682
-0.00015533242
-3.2290644e-05
-2.2273132e-05
-0.00029656536
0.00013919481
-0.00013455634
-0.00013493296
0.00012552871
-0.00013591985
-7.0353628e-05
-1.8647109e-05
-8.8065955e-05
-0.00011863924
0.00026542486
-0.00013938762
9.7753602e-05
6.9663351e-05
0.00026752298
-4.1518866e-05
0.00030320131
-0.00032156671
-0.00016072532
0.00022510017
0.00035481533
-0.000289075
0.00036427028
-0.00013039428
0.00016681488
-0.00062409512
0.00018222654
-0.00032887604
-0.00067829712
0.00020976002
-0.00067293663
0.00023932365
0.00065326397
-0.0012478176
0.00062896249
0.00098674307
-0.0005290534
-0.00025645796
0.00017049016
-7.9610667e-05
-7.7377616e-05
2.7965711e-05
6.2283023e-05
-9.04198e-05
-0.00010055783
-2.1808809e-05
-0.00011934425
0.00010127238
-0.00010075264
7.8179497e-05
-0.00012836122
0.00010165681
-0.00014166461
0.00012406721
-0.00014849995
-0.00013140731
6.0411688e-05
-2.8529435e-05
-3.5731552e-05
-1.2636051e-05
-5.5412476e-05
0.00013796216
-0.00014950447
-0.00013862002
0.00013332221
-0.00016452338
0.00015832509
-0.00013712665
0.00013204066
-0.00014300793
0.00012040419
0.00010609546
-8.4331145e-05
-6.5939886e-06
-6.6405888e-06
-1.1264228e-05
-0.00011824662
0.00010444588
0.00014798981
-2.6468017e-05
7.8972947e-05
8.4376783e-05
-0.00015677469
9.6642062e-05
-4.7225222e-05
-0.00016420574
7.3352115e-05
-3.8797428e-05
-6.6222387e-05
-0.00027951289
0.00013090927
-0.00017960224
2.4269818e-05
0.00011440969
-0.00014670034
-0.00013691668
0.00011464355
-0.00014031808
-0.00031804239
0.00018348605
-0.00028461868
0.00014968572
-0.00019251368
-0.00029811804
0.00016219819
-0.00022100377
0.00015065014
-0.00016669428
0.00014804717
-0.00022180455
0.00013373859
-0.0002630557
0.00014441647
-0.00023352733
9.4139709e-05
0.00028716586
-0.00018941226
0.00018716555
-0.0001175022
1.1065027e-05
-0.00019505481
0.00015353595
0.00032569733
-2.2496015e-05
3.3248626e-05
0.00016497201
0.0002481319
-2.3031734e-05
7.5195275e-05
-0.00044461911
0.00031422483
0.0005497125
-0.00038289761
-0.00049607058
0.00065786703
-0.00046317661
0.00060481205
-0.00036548839
-0.00059455364
0.0011605457
-0.00053158323
0.00063149232
-5.0513613e-05
-7.7762585e-05
-1.8480815e-06
-1.5094593e-05
-4.9796874e-05
-7.3366061e-05
-1.7053739e-05
-9.517487e-05
-1.8071873e-05
-2.2573146e-05
-2.6704413e-05
-1.7597392e-05
-0.00015218585
3.6859001e-06
-9.177416e-05
-0.00012630191
9.7772471e-05
-0.00012527407
8.9542519e-05
9.6175256e-05
-0.00010881131
-0.00012469765
6.9285174e-05
-2.6561224e-05
-1.6182267e-05
2.1198445e-05
-1.0967265e-05
0.00015107876
-3.0674571e-05
-1.2151157e-05
6.6747617e-05
0.00010823663
-0.00011483062
-0.00011733476
0.00011069417
-0.00012332477
0.00011206055
-2.1856028e-05
-0.00011950546
9.3037446e-05
0.00012449471
-4.5521759e-05
0.00012187951
-3.7502731e-05
0.00012596096
-2.9318901e-05
-9.9449535e-05
5.2224313e-05
0.00012651378
-5.3161666e-05
7.3421223e-05
-0.00011221865
-0.00013976149
7.3539101e-05
-4.8692967e-05
0.00013881793
-0.00011454811
0.00014306474
-2.8655047e-05
-7.882407e-06
6.1480575e-06
-2.5117938e-05
-0.00023195039
9.1632307e-05
-0.00010113263
-0.00014843232
9.4652183e-05
-6.9752193e-05
0.00023810704
-8.7456896e-05
7.1412756e-05
-7.3757377e-05
-0.00012931711
-8.9110866e-05
0.00021706471
-0.000122925
2.7652448e-05
-7.8892639e-06
0.00013062971
-0.00016441115
0.00017547617
-1.08752e-05
-0.00026774789
0.00024525188
0.0003040942
-0.00027084557
0.00019877551
-3.3803502e-05
0.00017574378
-0.00025790135
0.00033309663
0.00010509339
5.6323478e-05
0.00022191444
0.00016179645
-0.0007849667
0.00032179009
-0.00070925442
0.00034376603
0.00071542436
-0.0012387443
0.00070716106
0.0011028036
-0.00047131132
-0.00019383883
0.00014332521
4.5278427e-05
-4.7126508e-05
4.7711608e-05
-6.2806201e-05
-2.0852655e-06
5.4059173e-05
-7.1112912e-05
-7.6465224e-05
-1.8709646e-05
-9.4537097e-05
7.4299563e-05
-9.6872709e-05
7.7413769e-05
-0.00010411818
8.9277834e-05
-0.00010687523
0.00010225208
-9.8566185e-05
4.4010963e-06
-2.75016e-05
-3.5155131e-05
-0.00010883505
2.3747987e-08
-3.9549881e-05
0.00010665969
-0.00013322091
-0.00012763168
0.00011144941
-7.8222854e-05
9.94213e-05
-0.00010915407
9.8186806e-05
-0.00011492773
8.4253156e-05
-9.8685317e-05
8.653416e-05
-3.1937699e-05
-9.0981286e-06
7.0488934e-06
-1.2630603e-05
-1.5571135e-05
-0.00010867992
8.6823896e-05
4.9892418e-06
0.00010852245
-1.5485006e-05
8.0439205e-05
7.1019722e-05
-9.0183206e-05
6.0864305e-05
2.7064245e-05
8.5626521e-05
-3.3402209e-05
-0.00010568176
5.2520091e-05
-3.2260533e-05
-0.00010875916
-3.4594876e-06
-3.5220063e-05
0.00011485466
-0.00016354763
3.0655183e-07
7.3887329e-05
-0.00010254238
9.5856559e-05
-0.00010373897
-7.9006091e-05
8.5154148e-05
-9.5075921e-05
6.9957983e-05
0.00018693986
-9.5307558e-05
-0.00022450628
0.00012337365
-0.00023402602
8.5593695e-05
0.00025080841
-0.00015615623
9.5822497e-05
-0.00016557469
-0.00019715751
0.00010970061
0.00017342012
-0.00010200737
9.9662747e-05
-0.00020318657
7.3869462e-05
8.9935387e-05
-0.00017904625
-0.00020197203
7.9047035e-05
0.00014575476
-0.00011810232
-0.00016607283
0.00015818357
-3.5443124e-05
-1.8362653e-05
-0.00018760003
0.00017672483
3.6346304e-05
0.00023155977
1.3692116e-05
6.2251058e-05
0.00019775627
0.00019253084
-1.6787065e-05
0.00042062377
-0.00031553038
-0.00029112583
0.0003474493
0.00050767922
-0.00028576478
-0.00062317025
-0.00038746433
0.0005755676
-0.00023180157
-0.00052331993
0.0011514336
-0.00044427253
0.00047963338
0.00068012228
-5.3832296e-05
-5.3248235e-06
-4.2036054e-05
-5.0904539e-06
-8.7470282e-06
-4.412132e-05
-5.7084831e-05
-1.4028081e-05
-7.5794477e-05
-2.0237535e-05
-1.945894e-05
-1.4840347e-05
-4.6231409e-06
-0.00010623764
7.6714517e-06
-0.00010183654
-0.00010870228
8.1200676e-05
-0.00010527264
7.0117508e-05
7.8734639e-05
-7.8710891e-05
-9.6099262e-05
5.6549382e-05
0.00013868897
-3.2029282e-05
-2.17715e-05
6.0466118e-05
-9.7327718e-06
-1.6740921e-05
0.00010660723
-2.2354069e-05
-2.2145764e-05
7.4669527e-05
-9.7628524e-05
8.8530395e-05
-8.2814067e-05
8.986296e-05
-0.00011238459
9.9753989e-05
-0.00010299293
8.7421794e-05
-2.187838e-05
-7.8255834e-05
8.3245076e-05
-8.8168292e-05
7.2683285e-05
2.1833712e-06
-1.1794345e-05
-4.5566843e-06
7.7747049e-05
-1.6882744e-05
7.58423e-05
-4.8778055e-05
4.2440091e-05
7.2040962e-05
-1.9520871e-05
-6.64548e-05
3.4194267e-05
5.6780513e-05
-6.024e-05
-9.2824755e-05
5.7604691e-05
2.3392235e-05
0.00010136651
-0.00010105996
-5.1187622e-06
-6.6858169e-06
-2.3724522e-06
-9.9217726e-06
-2.2866772e-05
-0.00015132981
5.6022255e-05
2.630213e-05
-0.00011065237
0.00021475456
-0.00012916087
-0.00022021337
6.4057146e-05
-5.5507315e-05
4.9179872e-05
0.00018572375
-7.6023139e-05
8.3716387e-05
-0.00010352382
0.00019608705
-0.00012221759
-0.00011203665
1.70408e-05
0.00016074581
-8.1698774e-05
-7.4458609e-05
4.2643493e-05
-2.9416458e-05
0.00015708772
-0.0001558478
0.00013748514