/*--------------------------------*- C++ -*----------------------------------*\
| =========                 |                                                 |
| \\      /  F ield         | OpenFOAM: The Open Source CFD Toolbox           |
|  \\    /   O peration     | Version:  2112                                  |
|   \\  /    A nd           | Website:  www.openfoam.com                      |
|    \\/     M anipulation  |                                                 |
\*---------------------------------------------------------------------------*/
FoamFile
{
    version     2.0;
    format      ascii;
    arch        "LSB;label=32;scalar=64";
    class       surfaceScalarField;
    location    "0.335";
    object      phi_0;
}
// * * * * * * * * * * * * * * * * * * * * * * * * * * * * * * * * * * * * * //

dimensions      [0 3 -1 0 0 0 0];

oriented        oriented;

internalField   nonuniform List<scalar> 
11836
(
-0.00058285907
-0.00010763484
-0.00047522423
0.00058172055
-0.00068935539
3.1455009e-05
-0.00050667923
-0.00023326281
-0.00014449945
-0.00054485595
0.00025476538
-0.00022331037
-8.4548824e-05
-0.00042213041
0.00057514175
-0.00080840456
0.00057799306
-0.0007224925
-0.00062940477
-0.00022331037
2.802792e-05
-0.00045015833
-9.1181571e-05
-0.00023041151
-8.4201333e-05
-0.00063829117
-0.00013534841
-0.00049405636
-0.00019528245
-8.0080047e-05
-0.00037007829
-0.00054901897
-0.00074136307
0.00051095157
0.0005478521
-0.00063205344
-0.00077363958
-0.00057413641
-0.00019528245
2.7352857e-05
-0.00039743114
-0.00060863226
5.9613298e-05
-0.00019351097
-9.7680695e-05
1.988031e-05
-0.00065193375
-0.0002516099
-0.00052202968
-0.00013805499
-0.00043608142
-0.0001679296
-7.2806594e-05
-0.00032462455
0.00048486809
-0.0004252548
-0.00057838429
0.00038487332
0.00041111468
-0.00050879537
0.0004975329
-0.00047765259
-0.00051482464
-0.0001371091
-0.00076643455
-0.00066008466
-0.00050888802
-0.0001679296
2.454267e-05
-0.00034916722
-3.2250865e-05
-1.4140119e-05
-8.0851391e-05
0.00054083417
-0.00015596086
3.2038802e-05
-0.0004156734
-6.1979187e-05
-0.0005527825
-0.00022031157
-0.00054612298
-0.00019077347
-0.00046931119
-0.00011605022
-0.00039283779
-0.00014338693
-6.1432481e-05
-0.00028773474
-0.00051234913
0.00046358948
-0.0004777296
-0.00053728914
0.00045643775
-0.00051613886
0.000360178
0.00044341758
-0.00041137877
0.00046621791
-0.00052819709
-0.00055504092
2.2584184e-06
0.00038451257
-0.00060482415
-0.00073689645
-0.00058536142
-0.00045427027
-0.00014338693
2.0719072e-05
-0.00030845381
-4.8759658e-05
-3.4312019e-05
-7.1071236e-05
-5.9701109e-05
-5.1200776e-05
-0.00044846921
-7.9727882e-05
-0.00017052835
-0.00044621079
-0.00056011148
-4.4712667e-05
-0.00027561896
-0.00046127748
-0.00014907071
-0.00043629071
-8.880834e-05
-0.00036546193
-0.00012266786
-4.7825001e-05
-0.00026062881
0.00046937986
-0.00051813951
0.00045301106
-0.00048732308
0.00054437367
-0.00061544491
-0.00052404809
0.00046434698
0.00044111057
-0.00049231134
0.0004541096
-0.00053383749
0.0003473457
-0.00051787405
-9.886509e-05
-0.00034225244
-0.00021785905
0.00040860803
-0.0004533207
-0.0006178714
-0.0006103482
-0.00052509904
-0.00041328693
-0.00012266786
1.6409687e-05
-0.0002770385
-9.2141536e-05
-6.512846e-05
-4.6212509e-05
2.0325584e-05
-0.00016133531
-2.7964367e-05
-0.00042032072
-0.00011351676
-0.00010926603
-0.00051918581
0.00033863613
-0.00055649517
-0.00011468457
-0.0004561763
-0.0001616951
-0.00014148092
-0.00046886728
-9.5659273e-05
-0.00042943977
-6.1046112e-05
-0.00035224082
-0.00010625817
-3.361147e-05
-0.00024342703
-0.00054519612
0.00045641954
-0.000521548
0.00045619417
-0.00050240668
0.0004921253
-0.00047179972
0.00039528079
-0.0005566161
0.00046537895
-0.00049334331
0.00043351344
-0.0005470302
0.0004142254
-0.00052349143
-0.00010496041
-0.00042570855
-0.00013078662
0.00041990933
-0.00053459389
-0.00059765722
-0.00058740365
-0.00056452655
-0.00049048588
-0.00038585229
-0.00010625817
1.1782032e-05
-0.00025520906
-8.8776578e-05
-6.5353832e-05
-3.702773e-05
-1.2180136e-06
-0.00053969923
6.7899512e-05
-0.00014441844
-0.00012310266
-0.00043647901
-0.00011055119
-0.0001035821
-0.00054143943
0.00043324818
-0.0005640348
-0.00010134571
-0.00051456051
-8.3096714e-05
-0.00050245884
-8.4944806e-05
-7.0223613e-05
-0.00049430293
-5.1954092e-05
-0.00043853179
-3.3212612e-05
-0.00035263968
-9.4476142e-05
-1.7480107e-05
-0.00023772895
0.00044490392
-0.0005336805
0.00044703582
-0.00051238965
0.0004551107
-0.00049213843
0.00046339174
-0.00046460975
0.00046536401
-0.0003974645
0.000380837
-0.00052525543
0.00044260857
-0.00056571123
0.00044971908
-0.00056027027
0.00043972594
-0.00054330804
-0.00010171349
-0.00048894994
-7.5084863e-05
0.00045244516
-0.00055379087
-0.00058478412
-0.00058555556
-0.00057389474
-0.00054625703
-0.0004717444
-0.00037011978
-9.4476142e-05
5.7263844e-06
-0.00024345534
-0.00011524934
-8.6644684e-05
-5.7278954e-05
-2.8746689e-05
7.5425737e-07
-1.66275e-05
-8.2646864e-05
-0.00011599215
-0.00045313516
-0.00010713511
-9.0862882e-05
-0.00055484866
0.00048697548
-0.00056206035
-6.6815385e-05
-1.2925183e-05
-0.00057185893
-0.00056805935
-1.7496208e-05
-0.00053993792
-3.3956818e-05
-2.5440813e-05
-0.00052081621
-1.5617245e-05
-0.00045612716
-4.1238337e-06
-0.00036599595
-8.8749757e-05
3.8522363e-06
-0.00024730757
-0.00054329658
0.00043062761
-0.00051727229
0.00043639636
-0.00049367531
0.00044481831
-0.000473565
0.00045026616
-0.0004495119
0.00045315151
-0.00046977901
0.00052683544
-0.0006094823
0.00046701653
-0.00058300868
0.00045725442
-0.00056438953
0.00046584189
-0.00055670477
-8.9006766e-05
-0.00053144191
-3.0618434e-05
0.00048783123
-0.00055464662
-0.00058098453
-0.00059729975
-0.00055743413
-0.00056539873
-0.00053643346
-0.00046025099
-0.00036214371
-8.8749757e-05
-5.1006408e-06
-0.00024220693
-0.00011266898
-8.0875931e-05
-4.8857002e-05
-2.3298844e-05
3.6396126e-06
5.7056426e-05
-0.00014246577
-0.00012575426
-0.00046684322
-9.7546311e-05
-6.887354e-05
-0.00055584998
0.00051975239
-0.00055037082
-3.4894227e-05
0.00013671074
-0.00071769527
7.4032751e-06
-0.00060470302
-0.00054011468
-1.7319452e-05
-0.00059246799
2.7069263e-05
1.0181648e-05
-0.0005466151
2.3778997e-05
-0.00048402999
3.3176726e-05
-0.00039532044
-9.3850398e-05
3.9021832e-05
-0.00028122877
0.0004017576
-0.00051442657
0.00041251193
-0.00049338786
0.00042043682
-0.00046929382
0.00042833992
-0.00045163876
0.00043571742
-0.00043207781
0.00045383615
-0.00039677973
0.000476179
-0.00061864476
0.00044207487
-0.00056782912
0.00045549442
-0.00055304073
0.00048450268
-0.00055337622
-7.1347304e-05
-0.00055690612
6.5353035e-06
0.00050826837
-0.0005431626
-0.00040340394
-0.00071029199
-0.00059452137
-0.00060978744
-0.00052983686
-0.00052283611
-0.00045085326
-0.00035629861
-9.3850398e-05
-3.7579952e-05
-0.00024364881
-0.00014054322
-0.00010191464
-7.2951043e-05
-4.0953901e-05
-1.5921339e-05
2.1758346e-05
-0.00049037391
9.3594187e-05
-1.4194917e-05
-0.0001765699
-0.00011233471
-0.00047662184
-7.6418889e-05
-4.5107848e-05
-0.00054796914
0.00053819786
-0.00053166255
-4.9647394e-06
0.0003769464
-0.00078035033
-0.00064553355
-6.4758444e-05
2.2710004e-05
-0.00061723137
-0.00023284104
7.4014932e-05
-0.00060385179
5.6486924e-05
-0.00057932303
7.0095574e-05
-0.00052094883
8.0305632e-05
-0.00043660424
-0.00013143035
9.0556384e-05
-0.0003342052
0.00035279352
-0.00049333674
0.000383037
-0.00048495164
0.00039259373
-0.00046554478
0.00040090284
-0.00044185674
0.000408541
-0.00042446234
0.00041191478
-0.00039015643
0.00039685484
-0.00030326065
0.00030116563
-0.00031536054
0.00037011038
-0.00054668027
0.00041970765
-0.00053204236
0.00046280467
-0.00053922356
0.00049514517
-0.00054025302
-5.2823971e-05
-0.00054476346
1.3100913e-05
0.00051587104
-0.00052083578
-0.00062002022
-0.00016033011
-0.00062282355
-0.00068477866
-0.00056074445
0.00042304654
-0.00065588758
-0.00047074853
-0.00018080525
-0.00050922746
-0.0004406432
-0.00034604785
-2.0312811e-05
-0.00011111754
-8.5646052e-05
-0.00024855914
-0.00010095899
-0.00011029974
-9.2357907e-05
-6.4641937e-05
-3.3315738e-05
-1.2547565e-05
6.6984109e-06
-2.095026e-06
-0.00059167609
0.00027631555
-0.00022156572
-0.00012697262
-6.9237682e-05
-0.00048864732
-5.0576241e-05
-2.4381972e-05
-0.00054147129
0.00057579604
-0.00056269513
5.4960264e-05
0.00052288678
-0.00068321689
-0.00063904299
1.6219449e-05
-0.00063779151
-4.6987149e-05
9.67785e-05
-0.00065752295
-0.0001330008
-0.00041755097
-5.319756e-05
-0.00059835622
0.00011993492
-0.00062916238
0.00010906102
-0.00054970422
0.00013694185
-0.00048298971
-2.0312811e-05
-0.00019676359
0.00015664803
-0.00040520717
-0.00046752574
0.00036843086
-0.0004787306
0.00036299647
-0.00045535438
0.00036974773
-0.00043438967
0.00038081998
-0.00041413571
0.00039140983
-0.00040395739
0.00038101052
-0.00037431211
-0.00034021849
0.00033812347
-6.3902941e-05
-0.00047202494
0.00025045923
0.00035843214
-0.00048540476
0.00042504636
-0.00049428404
0.00050802856
-0.0005586048
0.00049074564
-0.00051512761
-5.0725652e-05
-0.00056643042
3.7352951e-06
0.0004803507
-0.00042539043
-0.0006185249
-6.4691993e-05
-0.00054226449
-0.00062157206
-0.00066551204
-0.00053758803
0.00049834087
-0.00063134167
-0.00061962798
-0.00010001535
-0.00052010136
-0.00041276237
-0.00032634168
-2.0312811e-05
-3.9874685e-05
-0.00015688891
-0.00013527804
-0.00026992913
-9.9094875e-05
-0.00011573413
-8.5606649e-05
-5.3569694e-05
-2.2725886e-05
-2.2946874e-05
-3.6188636e-05
-0.00039450743
0.00033060449
-0.0001135928
0.00039442974
-0.00014397052
-6.0358399e-05
1.3744523e-05
-0.00049652651
-6.207829e-05
-3.4776907e-05
-0.00054725217
0.00034972574
-0.00034599045
-0.00045828512
3.289469e-05
0.00058548572
-0.00065017771
6.8767926e-05
-0.00061103242
-0.00062373901
2.1669496e-06
-0.0006560683
-9.4437449e-06
0.00029268271
-0.00083027073
-4.5855948e-05
-0.00049185801
-0.00012776998
-0.00059187336
0.00011784519
-0.00063794655
0.00011429454
-0.0005270569
0.0002473412
-0.00057368288
0.00023043965
0.00040798852
-0.00050708339
0.00032688009
-0.00044261421
0.00033223543
-0.00041784207
0.00034592446
-0.00039949416
0.00036488076
-0.00038760664
0.00040530206
-0.00042824893
-0.0003791201
0.00034293147
-7.768486e-08
-4.8515612e-05
0.00031159844
-0.00042519124
-0.00038547126
0.00024150074
0.00038137531
-0.00044173371
0.00042058502
-0.0004068405
0.00032853332
-0.00039061161
0.00046426246
-0.00049903937
-8.29897e-05
-0.00010855938
-0.00058362335
0.0002376329
0.00037665071
-0.00034375602
-0.00067033687
2.0159158e-05
-0.00055497109
-0.00031834971
-0.00065390135
-0.00067978062
-0.00071242554
0.00054466444
-0.00059052038
0.00043734075
-0.00056511072
-4.7208924e-05
-0.00052365201
-0.0002797157
-0.00034324323
-8.8082621e-05
-0.00018020331
-0.00011037879
-7.1917612e-05
-3.4613396e-05
1.7695415e-05
-8.5317466e-05
-0.00029833709
0.0002982594
-0.00038311271
0.00033459709
-7.3872812e-05
-4.381593e-05
-5.6836345e-05
-2.1148686e-05
-0.00042537429
1.8533785e-05
-9.6840965e-05
-0.00039731412
6.7025112e-06
-0.00012238866
0.00029898539
-0.00038197509
-0.00037261114
0.00026405176
-0.0001462826
-0.00013497824
-7.9704261e-05
0.00064800282
-0.00062784367
-0.00052118204
-3.378905e-05
-0.00083953175
-0.00066556141
1.1660063e-05
-0.00070851766
2.8737046e-05
8.5963812e-05
-0.00079838935
5.7482441e-05
-0.00048057342
-8.4537301e-05
-0.00052778234
-0.00052791825
4.2662339e-06
-0.00080763395
0.00034154975
-0.00038572519
0.0002170145
-0.0003972178
0.00028059756
-0.00039097634
0.00030390577
-0.00037582338
0.00032189974
-0.00035651313
0.00033843436
-0.00032073894
-0.00035184233
0.00026652487
-8.4853304e-05
-1.7245239e-05
0.00032185416
-0.00039572697
0.00032034355
-0.00036415947
-0.00032477529
0.00026793895
0.00043956812
-0.0004607168
0.00034218546
-0.00032365167
0.0002361176
-0.00033295857
-9.8328731e-05
0.00029194413
-0.00028524162
0.00027082015
-0.00039320881
-0.00036831093
-1.3664155e-05
-0.0005643873
0.0004181047
-0.00044523171
0.00031025347
0.00031641088
-0.00039611515
-0.00079777313
0.00016992947
-0.00069935046
-0.00084838115
8.8494042e-06
-0.0006968576
-0.00076903609
-0.00076241734
-0.00079412312
0.00054974909
-0.00049226665
0.0004104062
-0.0004949435
2.1966751e-05
-0.0004660842
-0.00035891252
-2.6812666e-05
-0.00014189802
-0.00011662025
-8.7070571e-05
-5.3923646e-05
-1.8078773e-05
-0.00035103783
3.0298884e-05
-8.4512959e-05
-0.00030304893
0.00021819562
-0.00027603509
0.00025878985
-2.9211294e-06
-7.5383425e-05
7.5408643e-05
-3.510998e-05
-0.00011853134
-8.7534069e-05
-4.1014434e-05
0.00023926217
-0.0003375909
-4.5979446e-05
-9.7490779e-05
-7.6797928e-05
0.00026924119
-0.00028290535
-0.0001539811
-2.7127011e-05
-8.5861671e-05
0.00072954386
-0.00055961439
-0.00074685496
4.7504503e-05
-0.00073800556
-0.00073743462
4.0577018e-05
-0.00071829534
-5.0740745e-05
-0.00093508203
0.00017266468
0.00021475268
-0.0010088758
0.00023727721
-0.00044232617
-5.2617334e-05
-0.00042035942
0.00037935389
0.00024364579
-0.00027045845
0.00018439724
-0.00032629526
0.00023602361
-0.00035264385
0.00026053553
-0.0003476061
0.00028046497
-0.00033438861
0.00029592998
-0.00031400875
0.0002869895
-0.00025669061
-0.00029686042
0.00021234746
0.00029355257
-7.5356943e-05
1.7517473e-05
-3.8070569e-05
-0.0002966446
0.00029372348
0.00020742352
-0.00028280694
0.00024784981
-0.00017244117
-0.00026645339
0.00023134341
0.00027482031
-0.00039335166
0.00024389922
-0.00033143328
0.0002158838
-0.00025689824
-6.834971e-05
0.00033099045
-0.0003769699
0.00019168103
-0.00028917181
0.00036045911
-0.00043725704
-9.1224321e-05
-0.00046597096
0.00031198986
-0.0003383512
0.00031122419
0.00031688298
-0.00040274465
0.00015263072
-0.00071224512
-0.00068993011
-0.00088351177
0.00014550621
-0.00067771832
0.00060663786
-0.00065737861
-0.00072032934
-0.00071084709
-0.00062952191
0.00044729969
-0.00021002248
0.00036775547
-0.0004203728
2.6940278e-05
0.00032383705
-8.0191264e-05
-8.6061214e-05
-9.0271653e-05
-9.2108328e-05
-6.7141128e-05
-3.8458632e-05
-2.7019258e-05
-4.4343148e-05
-0.00025230288
0.00017694593
-0.00020525534
0.00022277282
-0.00026210016
0.00022402959
-0.00028768869
-8.9559115e-06
2.7270081e-05
-8.0265177e-05
-3.4957128e-05
-0.00033209999
0.00015965882
-2.0959463e-05
0.00032195932
-4.7139007e-05
-0.00014945244
-0.00011554948
7.409222e-05
0.00025752026
-0.00032586997
-0.00011944964
7.1287303e-05
-0.00012037405
0.00025493942
-0.00034616374
-9.821549e-05
0.00050064638
-0.00018865652
0.00016229519
-9.1520467e-05
0.00067220403
-0.00051957331
-0.00010560726
-0.00081510243
0.00012517231
-0.00066959621
-0.00075649413
7.8775807e-05
-0.00068272765
2.5349046e-05
-0.0010289066
0.00030857723
-0.00099231564
0.00028146855
0.00035278428
-0.00055186526
0.00034184278
-0.00038658561
-3.3787197e-05
-0.00035964533
0.00023875619
-0.00031894745
0.00015486362
-0.00024092484
0.00023679087
-0.00032706252
0.00022302747
-0.0003151358
0.00024068037
-0.0003078215
0.00025788891
-0.00029634754
0.0002870528
-0.00031407206
-0.00027789587
0.00023355273
-2.8309409e-05
-3.9327346e-05
-5.386628e-05
0.00018885101
-0.00019780693
-0.00019690829
0.00022417837
0.00016542622
-0.0002456914
-0.00022876719
0.00019381006
-1.0140672e-05
-6.9108361e-05
-0.00022297314
0.00020201368
-0.00021398315
0.00016684414
0.00020069681
-0.00035014925
-0.00030562279
0.00019007331
-0.00023153057
-7.0930548e-05
0.00022680968
-0.00034625932
-0.00027487644
-0.0004050044
0.00028463035
-0.00039574072
0.00029752523
-0.0004122806
0.00022362407
0.00040358025
-0.00024128507
0.00031205979
0.00012033877
-0.00048135265
-3.8220659e-05
-0.0005869599
-0.00063132182
-0.00091811002
0.00024851381
-0.00060395184
0.00059531669
-0.00056996764
-0.0006761223
-0.0006837384
-0.00063664147
-1.7802546e-05
0.00034797869
-0.00038176589
-5.194469e-05
-0.00016408383
-4.1339717e-06
-0.00010403505
-7.4455425e-05
-4.9932594e-05
-9.2947381e-06
-8.051933e-05
-0.00021960056
0.00019129115
-0.0002303146
0.00019098725
-0.00027125356
0.00021738728
0.00023133641
-4.2485396e-05
-3.2380704e-05
3.4428116e-05
1.2052327e-06
-5.1881343e-05
-0.00020195972
0.00019181905
-0.00025011811
0.00018100975
-1.7586877e-05
-0.00036350458
0.00014952143
-3.5115579e-05
-0.00016280777
-0.00016007595
-0.00044664875
0.00021511819
0.00021233037
-0.00028326092
-0.00021983907
-0.00013392894
-0.00044093334
0.0001660569
-9.2944612e-05
-0.000156303
-4.7762031e-05
-0.00011475536
0.00039604757
-0.0001724235
0.0001547625
0.00039579971
-0.00027546094
0.00049163651
-0.00052985717
8.356785e-06
-0.00082326983
0.00019194802
-0.00057475602
-0.00073395191
0.00013000007
-0.0006614843
9.1516664e-05
0.00041927403
-0.0010933555
0.00040961708
-0.0010484583
0.00041181687
0.00036792264
-0.00038572518
-1.3843249e-05
-0.00028896361
-0.00020291231
3.8828484e-05
-0.00020704628
0.0001620656
-0.00026610065
0.00019929025
-0.00027374568
0.00021305923
-0.00026299183
0.00022711775
-0.00023641249
-0.00024863003
0.0001681107
-3.9023454e-05
-8.0266309e-05
-3.1242745e-05
-0.00019240754
0.00014992215
0.00017754837
-0.00020992907
-0.00015665644
0.00019108456
-0.000190611
0.00019181623
-0.00026383372
0.00021195237
-5.8299059e-05
-8.2823966e-05
-0.00020014207
0.00018255519
0.00018972026
-4.0198826e-05
0.00015460468
0.00018918775
-0.00035199552
-0.00035097192
0.00019089597
-0.00013585373
-0.00037206663
8.8805712e-05
0.00011649336
-0.00033633244
-0.00028576025
0.00015183131
-0.00020600973
0.00026671503
-0.00035965965
-0.00036545557
0.00020915257
-0.00033952339
0.00029176136
-0.00035032837
0.00023557301
-0.00035107238
0.00017864888
0.00037475777
-0.00021999527
1.0074524e-05
-0.00061751126
0.00034205032
-0.00012587475
-0.00052932
-5.3716393e-07
-0.00052096322
-0.00054200389
-0.00091453592
0.00033977989
-0.00053148424
0.00059938629
-0.00050786962
-0.00067408145
-0.00063884126
-0.00050271905
0.00036999748
-0.00038384073
-0.00023389971
-5.5063895e-05
-0.00019507123
-0.0002287806
2.1734322e-05
-6.6715006e-05
-6.6810392e-05
-6.0686445e-05
-3.5874079e-05
-0.00023885328
2.4407948e-06
-7.0742584e-05
-0.00020506675
0.0001660433
-0.00020796267
0.00012769636
0.00016230997
-0.00019355272
-1.4859174e-05
-6.734299e-06
2.023301e-06
4.7355841e-07
-8.3258375e-06
-0.00021265529
0.00015435623
-0.00024398524
0.00016116127
-2.2511556e-05
0.00013649598
-0.00017669481
-5.8050606e-05
0.00025941967
-7.0231922e-05
-0.00016109955
0.00019891086
-0.00033476459
-0.00019695454
0.00028790402
-0.00017141066
-0.00018450113
-0.00036121949
0.00015520975
-9.8740536e-05
1.5098126e-05
-0.00015206691
3.0474091e-05
-5.8567017e-05
-0.00011549937
0.00033745845
-0.00015880956
0.00011746317
-0.00034732496
0.00035739948
-5.2746358e-06
0.00034243514
-0.00046830989
0.00045681816
-0.00045735532
7.8423071e-05
-0.00076723912
0.00022523523
-0.00042745923
-0.00069775121
0.00016626698
-0.00064898353
0.00014111391
0.00051062751
-0.0011692967
0.00053045544
-0.0011744487
0.00067172968
-2.6441248e-05
0.00012128518
-0.00017634908
-0.00017659137
-1.8479864e-05
-0.00015485704
0.00013270857
-0.00019942358
0.00017888961
-0.0002457
0.00016878702
-0.00022947347
0.00018139839
-0.00021727247
0.00017939798
-0.00017695719
-0.00020012403
0.00012938145
-4.1919371e-05
0.00018872609
-6.1029735e-05
-3.781406e-05
-4.8266213e-06
-0.00018162944
0.00016677027
-0.00017475181
0.00016801751
0.00017822581
-0.00017620251
-0.00017375659
0.00017423015
-0.00018272352
0.00017439769
-8.9629013e-05
0.00020032025
-3.9158976e-05
-0.00018430147
0.00016178991
0.00018877085
-5.2274869e-05
8.2724866e-05
0.00013072024
0.00012370257
-0.0001939345
-0.0003025411
0.00014144155
-0.00010363024
-4.6860572e-05
-0.00033161132
0.00013465679
-0.0003317856
0.00016037494
-0.00031346831
0.00012896718
-0.00017640157
-0.00030186607
0.00020312554
0.00021751283
-0.0002024147
-0.00033042005
0.00017835313
-0.00023186689
0.00026234098
-0.00029169986
0.00023313284
-0.00030437196
0.00018887259
-0.00030607794
0.00014726837
0.00029315722
-0.00017569404
-0.00034187598
0.00033660134
0.000416287
-7.3851856e-05
-1.1491732e-05
-0.00054293276
8.5577438e-05
-0.00046450968
-0.00047251598
-0.0007232993
0.00029584007
-0.00048271655
0.00061210956
-0.00047099566
-0.00065866919
-0.00064399329
-5.1569611e-05
-0.00036656718
0.00034012594
-4.855117e-05
-0.00013650907
-3.9840007e-05
-0.00015498894
-2.214847e-05
-2.0533972e-05
-7.6912979e-05
-4.8075073e-05
-3.7874489e-05
-4.7575741e-05
-0.0001766824
0.00013476303
-0.00016570208
0.00010467235
0.0001326754
-0.00017048947
-0.0001394787
0.00013465207
-3.4036361e-06
-7.9815375e-06
-5.7390808e-06
2.4117742e-05
-8.4933769e-06
-9.9037809e-06
-0.0001959819
0.00010635289
-0.00016264839
0.00012348942
-1.4892485e-05
-0.00016748064
0.00011520577
-8.4755776e-05
-6.5261657e-05
0.00018985448
-6.6151909e-05
-0.00026247413
6.8539637e-05
-0.00012103259
0.00015358109
-0.00025721133
-0.00023694554
0.00019008497
-0.00017881153
-0.00020281842
-7.6570594e-05
-0.00032684092
0.00015043936
-8.4353245e-05
-0.00012729451
9.0742514e-05
-0.00014848779
-0.00024866794
1.6801047e-05
-2.9358872e-05
-7.1239121e-05
-0.00011720534
0.0002939185
-0.00014665012
0.00011822445
7.441102e-05
-2.9965843e-05
-0.00038915645
0.00031530459
0.00037061354
-0.00038210527
0.00044768955
-0.00036211212
0.00014759988
-0.00069676383
0.00022424785
-0.00040092376
-0.00066620793
0.00018349138
-0.00065213508
0.00018113942
0.00059157404
-0.0012303272
0.00058633396
0.00069606042
-0.00074763004
9.1457996e-05
8.5431054e-05
-0.00013398222
8.4524278e-05
-0.00012436428
-0.00012873424
-2.6254701e-05
-0.00015088271
0.00013209103
-0.000152625
0.00010294515
-0.00017985813
0.00013983663
-0.00018791171
0.00016347765
-0.00020135214
-0.00017790667
0.00013033092
-3.0939058e-05
-3.4806349e-05
-4.5231261e-05
-3.583739e-05
0.00015551683
-0.00015892047
-0.00016705748
0.00015907594
-0.00016526992
0.00015953084
-0.00012950802
0.00015362577
-0.00016461162
0.00015611824
-0.00017872311
0.00016881932
0.000170968
-6.4615107e-05
8.3196041e-06
-6.0186076e-06
-0.00014703778
0.0001321453
0.00017811471
-6.2908934e-05
0.00010509871
0.00011285305
-0.00016437854
9.8226631e-05
-9.5838904e-05
-0.00023557474
0.00011454215
-8.1993645e-05
-6.7126363e-05
-0.00030788049
0.00012906897
-0.00027773433
7.4915907e-05
-0.00026261342
0.00018604283
-0.00015744114
-0.00025118978
0.00016683654
-0.00030147312
0.00017417861
-0.00016044727
-0.00030918349
0.0001606957
-0.00017756996
0.00019437101
-0.00026485229
0.00023549342
-0.00025423456
0.00018299544
-0.00027116676
0.00015396142
-0.00027270786
0.00012605773
0.00028600424
-0.00016777979
-0.00025107912
0.00032549014
-0.00025593906
0.00022597322
-1.8542906e-05
6.4225473e-05
6.5584283e-05
-0.0005958394
0.00023372728
-0.00044823951
-0.00044196008
0.00029513666
-0.0004686437
0.00061487879
-0.00043373937
-0.00063875321
0.0012052411
-0.00061890714
0.00045761106
-8.6111961e-05
-1.1143328e-05
-4.9457947e-05
-9.620553e-05
-2.8158755e-05
-0.00012246023
-1.8791678e-05
-0.00015315214
5.2713901e-07
-5.0206988e-05
-4.0021496e-05
-2.4434059e-05
-7.1021213e-05
-0.0001459445
0.00011500544
-0.00014354023
0.00010873389
0.00011883843
-0.00016406969
-0.00014447471
0.00010863732
-1.1540644e-05
-5.2947055e-06
-6.1939814e-06
-5.0807747e-06
-2.2604866e-05
2.178154e-05
-0.00017648592
0.00011187081
-0.00011846408
0.00012678368
-0.00013342347
0.00012740486
-1.3799201e-05
-0.00018447575
0.00012156682
-7.9377047e-05
-6.3632872e-05
0.00015837961
-6.0152981e-05
-0.00020542776
0.00010958885
-9.0885605e-05
0.00012545244
-0.00020744609
-0.0002083257
0.00014119934
-0.00014866536
0.00023030833
-0.00015539242
-3.2305091e-05
-2.2282876e-05
-0.00029668035
0.00013923921
-0.00013463658
-0.00013500487
0.00012555697
-0.00013598465
-7.0481287e-05
-1.8741139e-05
-8.8171322e-05
-0.00011874644
0.00026554921
-0.00013949148
9.776942e-05
6.955108e-05
0.00026759619
-4.1622973e-05
0.00030314126
-0.00032168417
-0.00016086247
0.00022508795
0.00035478562
-0.00028920134
0.0003642744
-0.00013054712
0.00016663928
-0.00062409412
0.00018213404
-0.00032895746
-0.00067827417
0.00020963047
-0.00067291771
0.00023917834
0.00065324634
-0.0012478141
0.00062890693
0.00098676433
-0.00052915327
-0.00025661029
0.00017049833
-7.9690838e-05
-7.7446754e-05
2.7988807e-05
6.2336942e-05
-9.0495697e-05
-0.00010063736
-2.1822867e-05
-0.00011942904
0.00010134777
-0.00010082063
7.8236405e-05
-0.00012844339
0.00010172661
-0.00014174811
0.00012414607
-0.00014858013
-0.0001314739
6.0452684e-05
-2.8534792e-05
-3.5740825e-05
-1.2635463e-05
-5.5432374e-05
0.00013801848
-0.00014955913
-0.0001386696
0.00013337489
-0.00016458525
0.00015839127
-0.00013717895
0.00013209817
-0.000143065
0.00012046013
0.0001061443
-8.4362756e-05
-6.5932607e-06
-6.6397909e-06
-1.1264737e-05
-0.00011829607
0.00010449687
0.00014804233
-2.647551e-05
7.9002565e-05
8.4409455e-05
-0.00015683029
9.667731e-05
-4.7241441e-05
-0.00016426387
7.3378266e-05
-3.881143e-05
-6.6246746e-05
-0.00027961862
0.00013095326
-0.00017966834
2.4275913e-05
0.00011444979
-0.00014675488
-0.00013696678
0.00011468391
-0.00014037941
-0.00031818214
0.00018354555
-0.00028473998
0.00014973511
-0.00019262516
-0.00029823939
0.00016225474
-0.00022112418
0.00015064289
-0.00016682256
0.00014808142
-0.00022192937
0.00013375805
-0.00026319609
0.00014444965
-0.00023364961
9.4158136e-05
0.00028729772
-0.0001895283
0.00018717829
-0.0001176272
1.0985904e-05
-0.00019515884
0.00015353587
0.00032578222
-2.2640953e-05
3.3101454e-05
0.00016491975
0.00024822481
-2.3136863e-05
7.5073065e-05
-0.00044472242
0.0003141753
0.00054966384
-0.00038302456
-0.00049614012
0.00065780687
-0.00046328724
0.00060479233
-0.00036561398
-0.00059456773
0.0011605453
-0.0005316384
0.00063139206
-5.0625854e-05
-7.7833618e-05
-1.8572202e-06
-1.5109812e-05
-4.9844812e-05
-7.3426901e-05
-1.7068796e-05
-9.5249767e-05
-1.8081271e-05
-2.2584228e-05
-2.6716783e-05
-1.7602036e-05
-0.00015227442
3.6942889e-06
-9.1821734e-05
-0.00012635751
9.7822717e-05
-0.00012533208
8.9591256e-05
9.6230751e-05
-0.00010886621
-0.00012475905
6.9326676e-05
-2.6566766e-05
-1.6184234e-05
2.1212322e-05
-1.0966825e-05
0.00015114349
-3.0683357e-05
-1.2151777e-05
6.6780732e-05
0.00010827796
-0.00011487122
-0.00011737721
0.00011073742
-0.00012337027
0.00011210554
-2.1860637e-05
-0.00011954778
9.3072271e-05
0.00012453981
-4.5537241e-05
0.00012192439
-3.7514934e-05
0.00012600602
-2.9328706e-05
-9.94846e-05
5.224316e-05
0.00012655861
-5.3180343e-05
7.3446969e-05
-0.0001122584
-0.00013981146
7.3564715e-05
-4.8715075e-05
0.00013886784
-0.00011459193
0.00014311622
-2.8666422e-05
-7.887045e-06
6.1494305e-06
-2.5127552e-05
-0.00023204172
9.1662314e-05
-0.00010119443
-0.00014850429
9.4672553e-05
-6.9786978e-05
0.00023821663
-8.7573732e-05
7.1394062e-05
-7.3847948e-05
-0.00012943804
-8.9199959e-05
0.00021717157
-0.00012301344
2.7643277e-05
-7.9805558e-06
0.00013059761
-0.00016450853
0.00017549443
-1.0972657e-05
-0.00026785125
0.0002452103
0.00030405679
-0.00027095533
0.00019885111
-3.3931363e-05
0.00017571425
-0.00025799413
0.00033306719
0.00010494142
5.6181167e-05
0.00022176777
0.00016166674
-0.00078494619
0.00032165895
-0.00070924676
0.00034363278
0.00071541027
-0.0012387456
0.00070710715
0.0011027974
-0.00047140531
-0.00019395458
0.00014332873
4.5316698e-05
-4.7173919e-05
4.7752434e-05
-6.2862245e-05
-2.092378e-06
5.410354e-05
-7.1172336e-05
-7.6525659e-05
-1.8724109e-05
-9.460693e-05
7.4355675e-05
-9.6939903e-05
7.7469261e-05
-0.00010418604
8.9338408e-05
-0.00010694044
0.00010231737
-9.8623081e-05
4.4090167e-06
-2.7509364e-05
-3.5167794e-05
-0.00010889392
2.7708789e-08
-3.9567247e-05
0.00010670623
-0.000133273
-0.00012767994
0.0001114957
-7.8252397e-05
9.9464719e-05
-0.00010919873
9.8231908e-05
-0.00011497697
8.4293617e-05
-9.8728821e-05
8.6577044e-05
-3.1948089e-05
-9.0992536e-06
7.0531679e-06
-1.2632851e-05
-1.5574401e-05
-0.00010872928
8.6868642e-05
4.992024e-06
0.00010856171
-1.5489436e-05
8.0468775e-05
7.1046774e-05
-9.0215167e-05
6.0886461e-05
2.7074008e-05
8.565705e-05
-3.3413891e-05
-0.00010571884
5.2538494e-05
-3.2271868e-05
-0.00010879748
-3.4609244e-06
-3.5232761e-05
0.00011489644
-0.00016361152
3.0451602e-07
7.3913415e-05
-0.00010257984
9.5890761e-05
-0.00010377781
-7.9034671e-05
8.5184101e-05
-9.5109884e-05
6.9982332e-05
0.00018701037
-9.5348051e-05
-0.00022461395
0.00012341952
-0.00023412765
8.5623361e-05
0.00025091819
-0.00015624564
9.5858559e-05
-0.00016564554
-0.00019726829
0.00010969456
0.00017351363
-0.00010211957
9.9665685e-05
-0.00020329811
7.3860068e-05
8.9962561e-05
-0.00017916252
-0.00020208298
7.9069544e-05
0.00014581805
-0.00011817477
-0.00016615377
0.00015817321
-3.5556158e-05
-1.8460155e-05
-0.0001877108
0.00017673814
3.6205537e-05
0.00023165304
1.3557256e-05
6.2111864e-05
0.00019772168
0.00019261966
-1.6905413e-05
0.00042058989
-0.00031564847
-0.00029123514
0.0003474163
0.00050765704
-0.00028588927
-0.00062327945
-0.00038758782
0.00057556428
-0.00023193149
-0.00052333527
0.0011514361
-0.00044432894
0.00047951793
0.00068003078
-5.3939563e-05
-5.3416656e-06
-4.2070056e-05
-5.1038623e-06
-8.7587049e-06
-4.4162434e-05
-5.7129873e-05
-1.4042463e-05
-7.5853981e-05
-2.0251255e-05
-1.9470642e-05
-1.4847637e-05
-4.6230744e-06
-0.0001063024
7.6793223e-06
-0.00010189339
-0.00010875381
8.1244445e-05
-0.00010532504
7.0157245e-05
7.8781022e-05
-7.8753314e-05
-9.6149673e-05
5.6582426e-05
0.0001387462
-3.2039971e-05
-2.1777294e-05
6.0493805e-05
-9.7340143e-06
-1.6745066e-05
0.00010665485
-2.2361236e-05
-2.2152235e-05
7.4706765e-05
-9.7664412e-05
8.8565158e-05
-8.2844184e-05
8.9897352e-05
-0.00011242687
9.9794024e-05
-0.00010303242
8.7458022e-05
-2.1885166e-05
-7.8283873e-05
8.3275896e-05
-8.8200151e-05
7.2710714e-05
2.184903e-06
-1.1797411e-05
-4.5581166e-06
7.7774939e-05
-1.6888478e-05
7.5869078e-05
-4.879507e-05
4.2455187e-05
7.20661e-05
-1.9527607e-05
-6.6477881e-05
3.4206012e-05
5.6800151e-05
-6.0261075e-05
-9.2857405e-05
5.7624644e-05
2.339885e-05
0.00010140338
-0.00010109886
-5.1212565e-06
-6.6890757e-06
-2.3744287e-06
-9.925783e-06
-2.2875073e-05
-0.00015139029
5.6042243e-05
2.6304245e-05
-0.00011070813
0.00021484351
-0.00012922015
-0.00022032396
6.4078322e-05
-5.5531734e-05
4.9197972e-05
0.00018582752
-7.6132956e-05
8.3707949e-05
-0.00010363242
0.00019618499
-0.00012232492
-0.00011212042
1.7022471e-05
0.00016082966
-8.176012e-05
-7.4505911e-05
4.2654891e-05
-2.9537585e-05
0.0001570635
-0.0001559526