/*--------------------------------*- C++ -*----------------------------------*\
| =========                 |                                                 |
| \\      /  F ield         | OpenFOAM: The Open Source CFD Toolbox           |
|  \\    /   O peration     | Version:  2112                                  |
|   \\  /    A nd           | Website:  www.openfoam.com                      |
|    \\/     M anipulation  |                                                 |
\*---------------------------------------------------------------------------*/
FoamFile
{
    version     2.0;
    format      ascii;
    arch        "LSB;label=32;scalar=64";
    class       volVectorField;
    location    "0.335";
    object      U;
}
// * * * * * * * * * * * * * * * * * * * * * * * * * * * * * * * * * * * * * //

dimensions      [0 1 -1 0 0 0 0];

internalField   nonuniform List<vector> 
8100
(
(0.77438995 0.019334741 -3.9941528e-20)
(0.8443758 0.035796271 -5.8537783e-20)
(0.98867539 0.064851126 1.2537283e-20)
(0.71162298 0.029273823 -5.2757627e-20)
(1.0981313 0.072214636 0)
(1.0147502 0.088560052 0)
(0.45811545 0.0091820739 1.5510355e-19)
(0.77242498 0.046536124 2.6974612e-19)
(1.2125748 0.10364921 -5.0742726e-20)
(1.1240957 0.12240716 0)
(0.91125336 0.080060291 1.4210383e-20)
(0.27867692 0.003571093 -4.8319279e-20)
(0.25246943 0.0054182904 -1.6047615e-19)
(0.64640865 0.035548976 -2.8746734e-19)
(1.2753858 0.10363168 0)
(1.2172049 0.12695948 2.8410069e-20)
(1.1438911 0.14943574 0)
(0.937685 0.10255307 -1.2265846e-19)
(0.41568498 0.012131227 5.728487e-20)
(0.70002467 0.053667759 6.1487964e-20)
(1.3602876 0.1317698 0)
(1.3132107 0.15884067 3.400686e-20)
(1.2410556 0.18269266 0)
(1.056748 0.14178676 0)
(0.83139277 0.0896856 1.2132818e-19)
(0.22453073 0.0069370909 -6.0994515e-20)
(0.5781238 0.039918329 4.0368841e-21)
(1.3783374 0.1451635 0)
(1.3159376 0.18274122 0)
(1.3697314 0.15996755 0)
(1.2587804 0.20385799 0)
(1.0670495 0.1654754 2.9337589e-20)
(0.85424303 0.11110794 0)
(0.36961868 0.014579877 -7.1796421e-20)
(0.62592066 0.058233885 -1.3556309e-19)
(1.4552715 0.1565167 7.9314693e-20)
(1.3881366 0.20600923 5.4369935e-20)
(1.4369752 0.18488647 0)
(1.3486747 0.22824007 0)
(1.239611 0.21691468 0)
(1.1670098 0.20291242 3.2517794e-20)
(0.96205936 0.14798916 -6.7618907e-20)
(0.75107047 0.093675961 -4.3465424e-21)
(0.1936143 0.0079672189 1.2823021e-19)
(0.5092597 0.041405262 1.3820772e-19)
(1.4919926 0.15083293 -1.0793398e-19)
(1.4801503 0.17714601 -4.3894202e-20)
(1.3933362 0.22763293 -6.6183152e-20)
(1.4383308 0.21078338 9.7414779e-21)
(1.4497723 0.19743161 -3.0697925e-20)
(1.3661632 0.25320983 0)
(1.311755 0.25314718 0)
(1.1642234 0.22909883 7.5645619e-20)
(0.97530412 0.1687909 7.1865596e-20)
(0.77389989 0.11278523 -1.5120103e-19)
(0.32097955 0.0157241 -1.0887804e-21)
(0.55485779 0.05909404 1.4845528e-19)
(1.5498236 0.16446084 -5.3925277e-20)
(1.5308258 0.18796527 3.7403276e-20)
(1.4566285 0.25292372 -2.147633e-19)
(1.4910019 0.23541771 0)
(1.5152199 0.21168016 2.6224849e-20)
(1.4218868 0.27273276 -2.8301946e-21)
(1.3194715 0.26457658 -2.0724077e-20)
(1.2429916 0.26156947 5.7853695e-21)
(1.0750774 0.20804519 -1.3822663e-19)
(0.8794509 0.14848588 0)
(0.67640525 0.093499395 1.4964001e-19)
(0.16321781 0.008280681 0)
(0.44477245 0.04064151 -1.4459564e-19)
(1.568086 0.18225907 4.126463e-21)
(1.5491642 0.20716695 -4.0263899e-20)
(1.4683601 0.2721638 8.9653915e-20)
(1.4983179 0.24959579 7.9954929e-20)
(1.5324388 0.23166776 0)
(1.4336266 0.29414979 8.2955523e-20)
(1.3015198 0.27569559 1.5028258e-19)
(1.3908813 0.2911048 8.0754778e-20)
(1.2414388 0.27617558 -1.586535e-19)
(1.0753484 0.22543486 -8.4227807e-20)
(0.89434904 0.16593353 -5.1614409e-21)
(0.70239611 0.11026765 -4.9933733e-21)
(0.27392428 0.015613569 0)
(0.49097195 0.057186761 -6.7781444e-20)
(1.6227881 0.19675717 -4.2683993e-21)
(1.6019973 0.22174343 0)
(1.531729 0.29819626 -7.7025544e-20)
(1.555838 0.27120392 7.4574381e-20)
(1.5804465 0.24567391 -4.0055228e-20)
(1.4888605 0.31871306 -3.7853796e-21)
(1.3527246 0.30592027 1.3625813e-19)
(1.4004034 0.31235868 -5.478278e-20)
(1.2142773 0.2783889 0)
(1.3099735 0.30913766 5.4623156e-20)
(1.1493867 0.25498533 5.2837761e-20)
(0.98583584 0.19942617 9.3489582e-20)
(0.80779821 0.1432591 -7.8954638e-20)
(0.61162846 0.089735937 -9.8551833e-21)
(0.1354783 0.0079712019 0)
(0.38859401 0.038429887 7.8438105e-20)
(1.6615696 0.19035821 0)
(1.6385655 0.21581595 0)
(1.6179711 0.24023254 0)
(1.5725584 0.29392452 2.2831525e-21)
(1.5393416 0.3197271 -7.30947e-20)
(1.595405 0.26606483 2.9220982e-20)
(1.4960589 0.33853643 4.0147376e-20)
(1.3541184 0.31720202 -9.4873875e-20)
(1.448135 0.33447488 4.5221181e-20)
(1.2630829 0.31253166 -1.0267555e-19)
(1.3132311 0.32629108 -5.5255054e-20)
(1.1402263 0.26823737 -6.1201993e-20)
(0.99666062 0.21290816 0)
(0.82961655 0.15759455 -1.5166835e-21)
(0.64371692 0.10429427 -2.0502099e-20)
(0.23169668 0.0145816 -4.6143995e-21)
(0.43730416 0.053487852 0)
(1.7129 0.20332583 0)
(1.6893656 0.2289209 -3.0165066e-20)
(1.6678287 0.2549194 0)
(1.6285436 0.31217246 0)
(1.5924662 0.34241644 4.4223987e-21)
(1.6478951 0.28220435 4.2829308e-20)
(1.5455466 0.36452303 8.1459337e-20)
(1.4051739 0.34615485 1.9329036e-19)
(1.4519573 0.3540353 -9.6917847e-20)
(1.2591067 0.3195764 8.2443484e-20)
(1.3590914 0.35138611 9.8984352e-20)
(1.0769357 0.24516171 1.127573e-19)
(1.2049436 0.30085429 0)
(0.9229827 0.18954426 0)
(0.75203995 0.13524992 -6.6327493e-20)
(0.55980924 0.083701713 0)
(0.11166697 0.0071853931 0)
(0.34368042 0.035447152 0)
(1.7248519 0.22206351 0)
(1.702693 0.24800092 3.1403497e-20)
(1.6822964 0.27473475 -3.550567e-20)
(1.6637158 0.30290084 0)
(1.6457717 0.33116623 1.8759699e-20)
(1.634567 0.34647567 0)
(1.5919485 0.3677296 0)
(1.5472053 0.38644727 -3.8601196e-20)
(1.4065931 0.36232163 -9.4622246e-20)
(1.5000154 0.38128691 -4.234991e-20)
(1.3104204 0.35096096 8.6797392e-20)
(1.3590112 0.36698518 -1.8940559e-19)
(1.0845347 0.25542485 -1.1717378e-19)
(1.2065913 0.31004275 0)
(0.94286125 0.20071559 1.0093463e-19)
(0.78224812 0.14696344 1.7748832e-19)
(0.59992752 0.096305144 6.1404288e-20)
(0.19643571 0.01320146 7.2663254e-20)
(0.39677345 0.048723163 0)
(1.7707243 0.23470642 0)
(1.7485887 0.26096729 0)
(1.7286251 0.28826096 2.8225646e-20)
(1.7111107 0.31642393 -3.1135796e-20)
(1.6990298 0.34554135 -6.6217426e-20)
(1.6778483 0.37392533 -2.5378073e-21)
(1.6400066 0.39439085 0)
(1.5951615 0.41513607 3.6187913e-20)
(1.4529918 0.39243216 0)
(1.500819 0.4014179 0)
(1.3102593 0.36260384 -4.3145991e-20)
(1.4044543 0.39752823 0)
(1.02794 0.23295165 -1.108363e-19)
(1.1552807 0.28895884 0)
(1.2637383 0.34377123 8.2319134e-20)
(0.87913064 0.17733614 -9.3876448e-20)
(0.71314234 0.12483027 2.1328293e-20)
(0.52381324 0.076438105 -7.7361892e-20)
(0.09250461 0.0060154178 -6.7857364e-20)
(0.31228758 0.032265918 -1.7685967e-20)
(1.8045105 0.2273681 1.8848425e-20)
(1.7817296 0.25335122 0)
(1.7609025 0.28029654 -2.8993997e-20)
(1.7420706 0.30816848 2.527401e-20)
(1.7265568 0.33778741 -1.5009151e-20)
(1.7137996 0.36798035 1.6884318e-20)
(1.682129 0.390887 3.467781e-20)
(1.6419788 0.41676945 -4.5343213e-20)
(1.5949605 0.43784145 0)
(1.4521851 0.41066992 0)
(1.5473467 0.432261 0)
(1.3568795 0.3958822 2.2813486e-19)
(1.403309 0.41335438 -9.6726862e-20)
(1.0469324 0.24146042 -2.3000211e-21)
(1.1653956 0.29757463 0)
(1.2678018 0.3539591 -4.0142604e-20)
(0.90784116 0.18591026 0)
(0.75264401 0.13392922 0)
(0.57328221 0.086931353 0)
(0.16937421 0.011254475 1.7132685e-20)
(0.3716366 0.043812267 0)
(1.8470194 0.23889245 3.1959644e-20)
(1.8249072 0.26533229 1.8660615e-20)
(1.8049447 0.29289506 0)
(1.7868532 0.32182435 7.2233607e-21)
(1.7711469 0.35219376 2.8265233e-21)
(1.7547115 0.38348178 -1.717158e-20)
(1.733461 0.41668927 -5.0935226e-20)
(1.6881647 0.4459967 6.9321804e-20)
(1.6394145 0.46898119 -3.3453212e-20)
(1.4978405 0.44381276 4.3669432e-20)
(1.5455273 0.45358369 -6.7229133e-20)
(1.3567785 0.40883831 -1.3576276e-19)
(1.4482825 0.44876412 0)
(1.1200171 0.27374455 0)
(0.99763231 0.2169179 1.0117557e-19)
(1.2256411 0.33258116 0)
(1.3141783 0.38687066 -4.4535026e-20)
(0.85125048 0.16105488 0)
(0.69177026 0.11222083 0)
(0.50589492 0.068267887 0)
(0.079487767 0.0044085062 0)
(0.29885437 0.029687394 1.327998e-19)
(1.8559332 0.25701636 -1.6251275e-20)
(1.8352911 0.28413422 -1.9528252e-20)
(1.8168373 0.31249101 0)
(1.8000494 0.34256688 1.3280928e-20)
(1.7856165 0.37385572 1.1209906e-20)
(1.7684607 0.40889929 2.0259063e-20)
(1.7371562 0.44066766 4.4783906e-20)
(1.6876738 0.47076597 -3.3801176e-20)
(1.6360426 0.49345944 -4.0889466e-20)
(1.4948487 0.46322366 -4.5752292e-20)
(1.5882548 0.48742986 1.4801268e-19)
(1.4008563 0.4464152 9.6390821e-20)
(1.4452685 0.46539755 -5.1453952e-20)
(1.1409274 0.28126564 -5.649674e-20)
(1.0236574 0.22154083 -1.0340262e-19)
(1.2331778 0.33922673 6.1212525e-22)
(1.3171953 0.39679535 1.6885388e-19)
(0.8880201 0.16650197 1.4170472e-19)
(0.74081556 0.11836921 4.2171213e-20)
(0.56643251 0.076638113 -7.5371894e-20)
(0.15492163 0.0094466965 0)
(0.36832555 0.040050266 -1.2939585e-19)
(1.8941233 0.26745892 -1.2382016e-21)
(1.8746673 0.29486726 -1.0351677e-20)
(1.8571323 0.32365054 -2.060314e-20)
(1.8414688 0.3542684 -2.4012723e-20)
(1.826974 0.38700938 6.2077736e-21)
(1.8117873 0.4235837 -1.9466458e-20)
(1.7870861 0.46935837 1.510884e-20)
(1.7306256 0.50143726 -1.9871742e-20)
(1.6769004 0.52747187 -6.6992855e-20)
(1.5357877 0.49947036 -4.8478665e-20)
(1.5829933 0.51034139 -6.485453e-20)
(1.3990866 0.45997493 -5.3810718e-20)
(1.4835534 0.50344377 -4.8710945e-20)
(1.1983225 0.31555627 3.7971374e-20)
(1.1082751 0.25715536 1.5079849e-19)
(0.9772553 0.1934264 4.9398924e-20)
(1.2817149 0.37281804 -4.4918975e-20)
(1.3589341 0.43601283 -1.4384998e-19)
(0.83930685 0.14132921 1.3710716e-19)
(0.68948325 0.097884299 -8.125083e-20)
(0.51163366 0.059798981 -7.2749008e-20)
(0.071988256 0.0058666608 0)
(0.31599581 0.029001593 0)
(1.9222286 0.25875217 -1.3554625e-20)
(1.9021698 0.28558065 1.9832901e-20)
(1.8841278 0.31373027 7.0437889e-21)
(1.8682038 0.34350876 2.3670227e-20)
(1.8537137 0.37526564 1.9649821e-20)
(1.8401795 0.40919776 -2.4392227e-20)
(1.8257837 0.44435568 -1.0425534e-20)
(1.8210627 0.46606737 -4.3456264e-21)
(1.7798814 0.50114564 0)
(1.72507 0.52938107 6.0187286e-20)
(1.6697356 0.55417123 3.5809698e-20)
(1.528973 0.51982906 1.4734071e-19)
(1.6215136 0.54770662 -2.2167983e-20)
(1.4347159 0.49818244 0)
(1.4759668 0.52041346 0)
(1.2276342 0.32774327 1.6194929e-19)
(1.1256404 0.25487628 -1.9952761e-19)
(1.0115615 0.1944264 -5.1458245e-20)
(1.2787438 0.3752251 -9.5755567e-20)
(1.3606938 0.44333098 5.7595875e-20)
(0.88384895 0.14355319 -1.8354167e-19)
(0.74863598 0.10085804 0)
(0.58634396 0.06483828 7.343899e-20)
(0.13901672 0.017730956 0)
(0.40794498 0.037705581 3.2144514e-20)
(1.954527 0.26762213 1.0379327e-21)
(1.9360716 0.2947302 -1.7501656e-21)
(1.9190735 0.32308703 -4.4985598e-22)
(1.9038806 0.35297869 -1.1872107e-21)
(1.8903624 0.38471523 -7.5069129e-21)
(1.87829 0.41783411 -1.3670359e-21)
(1.8694755 0.45145998 0)
(1.8578725 0.48554021 -1.0652867e-20)
(1.8198106 0.5292055 1.3475042e-20)
(1.7643379 0.56206802 1.8755601e-20)
(1.7072207 0.59176894 0)
(1.5641272 0.56011316 0)
(1.6118895 0.57234589 4.2065028e-20)
(1.4277233 0.51054951 0)
(1.5065412 0.56252287 5.3388426e-20)
(1.2214067 0.31742348 1.3085364e-19)
(1.0839123 0.21905432 0)
(1.1816749 0.27924405 -1.1434988e-19)
(0.97075317 0.16629692 5.0372145e-20)
(1.3047813 0.39229541 8.5252046e-20)
(1.3939893 0.48488091 0)
(1.3367426 0.42588744 -1.8885449e-19)
(0.84431632 0.11932007 0)
(0.70803592 0.082088999 8.0190625e-20)
(0.54637208 0.049876026 0)
(0.11682334 0.027500833 -1.8218834e-19)
(0.38207463 0.028511875 -3.0825813e-20)
(1.9725755 0.2603803 0)
(1.9585938 0.28534081 -5.8720683e-22)
(1.9429312 0.31268141 8.0917752e-22)
(1.927635 0.34182012 0)
(1.913962 0.37267514 0)
(1.9011234 0.40511522 6.2875832e-21)
(1.8901599 0.43909946 -6.8255007e-22)
(1.881936 0.47122376 -2.7421888e-23)
(1.8740541 0.50796626 0)
(1.8656392 0.52851416 0)
(1.8108872 0.5610368 -3.5191932e-20)
(1.7558667 0.59269451 0)
(1.6966645 0.62110481 0)
(1.5517798 0.58126494 -5.2462816e-21)
(1.6455053 0.61462758 -4.4334345e-20)
(1.4539866 0.55781878 0)
(1.4932694 0.58165216 0)
(1.2630443 0.34250594 -2.5686852e-19)
(1.1107216 0.21570566 -6.3121887e-20)
(1.1925493 0.27021393 -1.384173e-19)
(1.0128773 0.16412679 0)
(1.2930466 0.38116106 1.6926265e-19)
(1.3840023 0.49221701 1.6156758e-19)
(1.3558585 0.45532818 -7.4466161e-20)
(0.89646962 0.11865502 0)
(0.77445249 0.081328771 4.2403604e-20)
(0.6312654 0.049490217 -7.7814719e-20)
(0.039325505 0.010243691 3.1598182e-19)
(0.23834487 0.021590213 0)
(0.48998624 0.024145531 0)
(1.9931223 0.26652755 0)
(1.9855972 0.29200921 7.5905569e-21)
(1.9723392 0.32012356 0)
(1.9586938 0.34959262 6.4131779e-21)
(1.9459337 0.38071658 6.2820379e-21)
(1.9339052 0.41390331 0)
(1.9220801 0.44786585 3.9036237e-21)
(1.9091174 0.48001987 2.5078249e-23)
(1.910312 0.5017626 -3.7472768e-21)
(1.8970789 0.55661479 0)
(1.846239 0.59118596 0)
(1.7928185 0.62873616 1.8213397e-20)
(1.7331553 0.66752086 2.7986727e-20)
(1.5797166 0.62507941 -5.5590772e-20)
(1.6297197 0.64065825 0)
(1.432968 0.56587443 0)
(1.5155413 0.62470344 0)
(1.2619542 0.3283958 8.1925717e-20)
(1.0798164 0.18557044 0)
(1.1633904 0.2344572 2.0435493e-19)
(1.2363723 0.29044663 7.7845162e-20)
(0.98225069 0.13747019 -1.9971203e-19)
(1.3176775 0.40510813 1.3770839e-19)
(1.3999219 0.52484715 -6.2102346e-20)
(1.3427231 0.44567253 -1.2627999e-19)
(0.86599441 0.095863708 -1.7697791e-19)
(0.7421161 0.063427583 2.1429329e-19)
(0.60776997 0.033849658 0)
(0.030082293 -0.0063215609 1.7310118e-19)
(0.22712891 0.01543246 1.4075426e-21)
(0.47411948 0.011916559 0)
(1.9967311 0.27889864 -1.4862688e-21)
(1.9895823 0.30823159 -7.8032849e-21)
(1.9782378 0.33758783 0)
(1.9664239 0.36818197 -1.305567e-20)
(1.9553875 0.40033217 0)
(1.9436894 0.43457033 -3.0001127e-21)
(1.9312142 0.46896063 5.7985891e-21)
(1.9393867 0.51505607 9.9439845e-21)
(1.8865295 0.58709504 -1.6560363e-21)
(1.9308404 0.55606254 0)
(1.8382589 0.62343081 1.4385211e-22)
(1.7845753 0.66598309 -1.6711816e-20)
(1.7151669 0.70079522 -2.6893404e-20)
(1.5609572 0.64603932 0)
(1.6577912 0.68980333 0)
(1.4450516 0.59808604 0)
(1.5018014 0.64113795 -5.5336452e-20)
(1.2901029 0.35003481 1.9992568e-19)
(1.1112401 0.18079205 1.9803824e-20)
(1.1826441 0.2245279 7.8199744e-20)
(1.2459038 0.27626216 -8.457428e-20)
(1.0368382 0.1329666 8.3491052e-20)
(1.309756 0.39127516 0)
(1.3801421 0.52260936 0)
(1.3551072 0.4721772 1.4027326e-19)
(0.91975262 0.091307887 1.720518e-19)
(0.80856737 0.05993861 -1.5514064e-19)
(0.70107919 0.03084828 -1.1858016e-21)
(0.068797093 -0.00097255998 -3.0742339e-22)
(0.33688064 0.0052378579 -1.2113818e-19)
(0.57521999 0.0066632483 0)
(2.0060122 0.28102557 4.4675132e-20)
(2.0067943 0.31209964 0)
(2.0013683 0.34199539 1.5857812e-20)
(1.9930221 0.37338429 1.6107797e-20)
(1.9850415 0.40712867 0)
(1.9768868 0.44258909 0)
(1.9615 0.47965622 -1.4383294e-20)
(1.9438096 0.53562667 0)
(1.9672359 0.50005401 -7.5294051e-21)
(1.9176586 0.61296611 -1.3391628e-20)
(1.9528658 0.58104715 -1.4503713e-20)
(1.8742935 0.65353327 -1.6426298e-22)
(1.8225894 0.69978344 1.0566611e-22)
(1.7455804 0.73938719 -1.0006512e-20)
(1.581813 0.69374463 0)
(1.6325544 0.7172146 0)
(1.4738509 0.6274811 4.7947187e-20)
(1.4262216 0.610493 0)
(1.519327 0.68140895 0)
(1.2905233 0.33337518 -1.8803807e-19)
(1.1601552 0.19419591 0)
(1.0947443 0.15450827 1.0904953e-19)
(1.2256739 0.23973264 8.3854016e-20)
(1.2769816 0.29198494 8.4879088e-20)
(1.019364 0.11103559 0)
(1.3240846 0.41398614 1.2555232e-19)
(1.3774963 0.54657027 0)
(1.339525 0.45927673 -2.731746e-19)
(0.89054516 0.06947167 -5.1240811e-20)
(0.79156244 0.043354156 9.9840818e-20)
(0.69186287 0.017821933 1.426017e-19)
(1.9983487 0.26044155 -1.7254884e-21)
(2.0064366 0.29419089 -1.5275586e-20)
(2.0083665 0.3281639 0)
(2.0047338 0.35913395 -3.3184516e-20)
(1.9993621 0.39165504 0)
(1.9936416 0.42734986 0)
(1.9836503 0.46279053 1.3029171e-20)
(1.9769814 0.54421501 0)
(1.9936692 0.50896341 0)
(1.9500158 0.60213869 1.143907e-20)
(1.9130204 0.64266707 8.3354705e-21)
(1.9786384 0.56817189 1.660073e-20)
(1.8695099 0.687068 -1.2619706e-22)
(1.8182008 0.73045841 -9.7406156e-21)
(1.7906473 0.74710521 2.2347686e-20)
(1.7238823 0.77306416 2.5749634e-20)
(1.552991 0.71127833 0)
(1.6528301 0.75843542 0)
(1.4686231 0.66430431 1.0954048e-19)
(1.3970423 0.59517828 4.4243663e-20)
(1.4402515 0.65755174 -3.9295358e-20)
(1.4925576 0.69328705 -8.116006e-20)
(1.3068165 0.35003847 2.7213516e-19)
(1.182365 0.18331136 0)
(1.1510113 0.15196768 0)
(1.2417753 0.22410811 -1.622055e-19)
(1.2849088 0.273247 0)
(1.0660513 0.096807396 7.4811269e-20)
(1.3143833 0.39496556 6.6236998e-20)
(1.3480547 0.52922033 0)
(1.3372591 0.48122173 0)
(0.93645115 0.060945986 -2.1799339e-20)
(0.88450358 0.038169986 -8.1474506e-20)
(0.78523121 0.0091942549 3.1642925e-21)
(1.9738456 0.25529142 2.6426502e-20)
(2.0018981 0.29349978 1.2937793e-20)
(2.0121661 0.32708708 0)
(2.0159838 0.35914868 0)
(2.016219 0.39174545 1.4576328e-20)
(2.0134349 0.42667095 2.9686759e-20)
(2.0078976 0.46900558 -6.3609271e-21)
(1.9956362 0.53060485 -4.733008e-21)
(2.0087388 0.4943992 0)
(1.977606 0.62240817 -1.1696905e-20)
(1.9431474 0.66560994 -1.0027485e-20)
(1.9988461 0.57858377 0)
(1.9092968 0.71804502 0)
(1.8586442 0.75942529 -5.4914433e-21)
(1.8029726 0.78936967 0)
(1.6957335 0.77585244 -1.5274726e-20)
(1.7528266 0.80600395 -5.7084824e-21)
(1.5602295 0.74595551 -9.1972002e-20)
(1.6240458 0.78382333 -2.9547243e-20)
(1.3786252 0.63140956 4.8783027e-20)
(1.4324414 0.68602999 3.4081333e-20)
(1.4930629 0.7230678 1.4158543e-19)
(1.3053111 0.32469928 -3.759978e-19)
(1.2232389 0.19111734 -7.616672e-20)
(1.1618075 0.13805564 -2.5232603e-20)
(1.2747823 0.23347027 -8.6925604e-20)
(1.3050385 0.28160878 -1.6938153e-19)
(1.1399593 0.10721313 -7.7169854e-20)
(1.0291516 0.066120433 1.6327196e-20)
(1.3115811 0.41617623 8.4786104e-20)
(1.3359582 0.55364406 0)
(1.3184543 0.46111142 -8.9675939e-20)
(0.88660948 0.025418522 -1.1956489e-19)
(1.9656208 0.26380798 -2.3664021e-20)
(1.9788969 0.27884327 -9.337129e-21)
(2.0011477 0.3101517 -1.5207898e-20)
(2.0122795 0.34128811 0)
(2.0173418 0.3738806 -1.5104816e-20)
(2.0187093 0.40736026 9.6038967e-21)
(2.0178682 0.44070314 -2.7201979e-20)
(2.0178675 0.45928231 -3.0485205e-21)
(2.0150477 0.53762515 3.2533706e-20)
(2.0218258 0.49438313 0)
(1.9991243 0.60453681 -4.7299466e-21)
(1.9740312 0.648984 -1.0003894e-20)
(1.9436764 0.70262958 0)
(2.0132692 0.56283459 -4.5875959e-20)
(1.8995743 0.75084701 1.119868e-20)
(1.8430413 0.79085147 1.0036926e-20)
(1.7865076 0.81037768 3.7291875e-21)
(1.6954187 0.82268401 -2.6569254e-20)
(1.7334404 0.83251819 -1.9890337e-20)
(1.5922241 0.77522615 1.6288472e-19)
(1.5237049 0.75560042 0)
(1.6398732 0.82177282 2.7602819e-20)
(1.3469548 0.61150269 0)
(1.3952087 0.67931419 -1.2160336e-19)
(1.45894 0.72544833 -1.354143e-19)
(1.301792 0.34590148 4.1526676e-19)
(1.2432263 0.17419382 0)
(1.2269929 0.14470326 2.8165961e-19)
(1.2901203 0.21359709 1.6411659e-19)
(1.3133278 0.25653805 2.561668e-19)
(1.1807222 0.090050387 8.8713437e-20)
(1.0764993 0.052450028 6.5507298e-20)
(1.2979514 0.39260856 -1.4843345e-19)
(1.3105441 0.53181276 -1.2544434e-19)
(1.307053 0.48332866 0)
(0.97033858 0.013221408 0)
(1.9053478 0.24866284 5.2423488e-20)
(1.9413037 0.27506411 0)
(1.9774108 0.30434154 4.2969656e-20)
(2.0003394 0.33641622 4.238602e-20)
(2.0127392 0.36878627 2.2968341e-20)
(2.0184408 0.40122954 -1.0723731e-20)
(2.0225788 0.43204641 -1.4684489e-20)
(2.0243892 0.46261379 -1.3509077e-20)
(2.0224929 0.52753053 -9.3152996e-21)
(2.0227469 0.50915273 9.3390179e-21)
(2.0248329 0.47517039 9.043503e-21)
(2.0132847 0.60688783 1.2106978e-20)
(1.9962449 0.66065658 4.7366842e-20)
(1.9706421 0.71331588 0)
(2.0226124 0.56525714 4.0109924e-20)
(1.9261901 0.78115233 -4.0936194e-20)
(1.8624111 0.81961273 0)
(1.8035258 0.8406437 0)
(1.6713481 0.83835275 1.5034588e-20)
(1.7511486 0.87280894 5.7179005e-21)
(1.5808462 0.81516908 -4.8296656e-20)
(1.5217272 0.80574427 -2.5941576e-20)
(1.6103984 0.83805331 2.0011792e-20)
(1.3227718 0.63126497 -1.3046678e-19)
(1.3860686 0.7128028 -8.4065005e-20)
(1.4499128 0.76245284 0)
(1.298779 0.32499629 -1.2801378e-19)
(1.2819646 0.17991701 0)
(1.2571788 0.12542798 -3.0039393e-19)
(1.3136294 0.21530403 -9.3131603e-20)
(1.3147247 0.2543702 0)
(1.1620747 0.063689385 -1.5876498e-19)
(1.2433969 0.098971934 0)
(1.0586234 0.025513758 1.2068154e-19)
(1.2871765 0.41757838 1.4754459e-20)
(1.2918641 0.54935747 2.9563806e-19)
(1.2910443 0.46325666 -1.905831e-20)
(1.8512108 0.22951904 2.1028533e-22)
(1.8897252 0.25319829 -1.3739197e-20)
(1.9359717 0.28294305 -4.8395809e-20)
(1.9713878 0.31403929 -5.0233629e-20)
(1.9946478 0.34761002 2.265074e-20)
(2.0089546 0.38044659 -4.7414503e-20)
(2.0169346 0.41297453 0)
(2.0221169 0.44234078 2.3432424e-20)
(2.0238502 0.53129392 0)
(2.0232026 0.50042982 2.9026961e-20)
(2.0205596 0.47001101 -3.2332263e-20)
(2.0115974 0.62440103 -1.1120733e-20)
(2.0202148 0.58412502 2.0205071e-20)
(2.0078633 0.64887558 -3.221548e-20)
(1.9878605 0.69139971 0)
(1.9701979 0.7354862 0)
(2.0222314 0.54480773 -1.0912118e-20)
(1.9506441 0.77642655 0)
(1.8988847 0.82016012 3.0135741e-20)
(1.8386287 0.84750789 3.151464e-21)
(1.7870146 0.87376838 0)
(1.6783886 0.87903909 2.7550668e-20)
(1.7211154 0.89816943 -7.9162488e-21)
(1.5544934 0.82798387 2.750605e-21)
(1.4792804 0.81105094 0)
(1.6101385 0.87324928 -4.8865988e-20)
(1.2889384 0.59845056 1.4891297e-19)
(1.3231844 0.68516536 0)
(1.3571122 0.71644895 1.625513e-19)
(1.411544 0.76016005 0)
(1.2806816 0.32988272 0)
(1.3049745 0.27337888 -1.4312681e-19)
(1.3050168 0.15906542 0)
(1.2987462 0.13182387 6.9403465e-20)
(1.3303645 0.18876806 9.5746856e-20)
(1.329402 0.21042437 0)
(1.216044 0.048190353 -8.7910381e-20)
(1.2840264 0.081758866 0)
(1.1311866 0.012596203 -2.178852e-19)
(1.2789554 0.40607888 2.6921938e-19)
(1.2687492 0.51914763 -2.4956418e-19)
(1.2742738 0.47620042 9.1728036e-20)
(1.8684874 0.22487985 -3.5815209e-20)
(1.7466144 0.21060596 2.5747361e-20)
(1.8324115 0.24065765 -3.6540861e-20)
(1.8676608 0.268708 0)
(1.9235094 0.30182443 6.6438428e-21)
(1.9592225 0.33580572 0)
(1.9826919 0.36926838 3.1888597e-20)
(1.995561 0.40225554 0)
(2.0121201 0.43668594 -4.6721125e-21)
(2.0210444 0.51173089 3.361054e-20)
(2.0168759 0.48195103 -2.445192e-20)
(2.0060084 0.44805455 2.1815956e-20)
(2.0117113 0.61652971 -3.7543483e-20)
(2.0144946 0.57461598 -1.5109878e-20)
(2.0053182 0.65743047 6.9709443e-20)
(1.9967045 0.69372467 -3.1688234e-20)
(1.9610426 0.75635 0)
(1.9880282 0.71401645 -1.6971859e-20)
(2.014356 0.53902801 5.0976784e-20)
(1.9511987 0.79795703 0)
(1.9079774 0.84983582 -1.676931e-20)
(1.8494906 0.87925896 3.7829744e-20)
(1.8109365 0.90244087 0)
(1.6434671 0.89785081 -1.7300056e-20)
(1.7298738 0.93734613 6.8381488e-21)
(1.5662489 0.87727274 9.2137009e-20)
(1.4670046 0.85031042 -5.8495305e-20)
(1.2570623 0.61316084 -1.9356681e-19)
(1.280871 0.7026824 -1.9975533e-19)
(1.3463293 0.78177784 -1.7976395e-20)
(1.3904959 0.79734086 -9.186383e-20)
(1.2664575 0.36886827 1.1762354e-20)
(1.2836312 0.29677158 0)
(1.3044807 0.25897346 1.9498174e-19)
(1.3315949 0.16179608 -9.2255669e-20)
(1.3285494 0.11218451 0)
(1.3386198 0.18641441 2.2874153e-19)
(1.3293413 0.2032138 0)
(1.2028986 0.02405293 7.8954059e-20)
(1.2747559 0.057666845 2.9884859e-19)
(1.3254807 0.088509888 0)
(1.2612762 0.44850802 -1.9597792e-19)
(1.2396826 0.5293018 0)
(1.6496191 0.18478595 0)
(1.736441 0.21246463 -6.4628197e-20)
(1.8148572 0.24637971 2.6724148e-20)
(1.8561269 0.27320773 0)
(1.9116704 0.30992842 8.1849679e-21)
(1.9478722 0.34362753 -3.255955e-20)
(1.9706753 0.37687419 0)
(1.9879183 0.41099649 0)
(2.0095812 0.50560177 -3.1345202e-20)
(1.9988899 0.47240426 3.1673589e-20)
(1.9760251 0.43614586 -5.1607683e-20)
(2.0070756 0.60282236 0)
(2.0048377 0.6364131 9.7027848e-22)
(2.0061965 0.58353585 0)
(2.0074284 0.550611 -8.907236e-20)
(1.9995567 0.6755389 -6.659514e-22)
(1.9727576 0.75884535 -7.7426381e-20)
(1.9866573 0.71872541 1.5400598e-20)
(2.0024473 0.5164184 0)
(1.9393606 0.82049236 0)
(1.9622157 0.77839636 4.1549192e-20)
(1.9235875 0.8432904 0)
(1.8760404 0.88430031 -1.1230157e-20)
(1.8053835 0.94056114 1.3403249e-20)
(1.6475562 0.9334737 -2.4435242e-20)
(1.7650498 0.9637016 -1.3485794e-20)
(1.6871042 0.9590494 0)
(1.5487152 0.90108082 0)
(1.4103444 0.84678533 0)
(1.4957254 0.89949426 3.4469138e-20)
(1.2284401 0.57685385 1.9867959e-19)
(1.2483357 0.66391874 1.987168e-19)
(1.2708138 0.75498045 0)
(1.3098267 0.79295419 1.1272003e-20)
(1.2391297 0.37559746 -1.5629356e-19)
(1.2640025 0.27909073 -1.9862514e-19)
(1.312651 0.22625828 -2.5641934e-19)
(1.3535071 0.13821813 -1.444441e-19)
(1.3562913 0.11564251 4.3610467e-20)
(1.3542249 0.1574042 -2.4243845e-19)
(1.3433862 0.16975037 0)
(1.258617 0.01126194 -8.8225337e-20)
(1.3196142 0.043376659 -9.6412903e-20)
(1.3609598 0.071886602 0)
(1.2353123 0.45135204 1.7597207e-19)
(1.2180142 0.4950142 0)
(1.4754098 0.15766324 -4.832991e-20)
(1.6525807 0.20520616 4.8941531e-20)
(1.7061589 0.22237115 2.3976745e-20)
(1.7659867 0.25526289 -3.6081284e-20)
(1.8339222 0.28965192 -4.6575163e-20)
(1.8824424 0.323355 4.2273098e-20)
(1.9132437 0.35499791 -4.5417639e-20)
(1.9503939 0.39829488 0)
(1.9914088 0.48301319 0)
(1.9692071 0.4457265 2.8117623e-20)
(1.9432509 0.40882642 7.2490289e-21)
(1.9871084 0.59593291 2.7938774e-20)
(1.9925158 0.63174828 2.2616484e-20)
(1.9843709 0.56559155 0)
(1.982745 0.53593656 1.0862745e-19)
(1.9907645 0.67537737 0)
(1.9760669 0.740538 2.438922e-20)
(1.9809226 0.69226933 0)
(1.974504 0.50302521 0)
(1.9395301 0.80140083 0)
(1.9554584 0.78036897 0)
(1.9041053 0.86830742 0)
(1.8717784 0.91566731 3.3938876e-20)
(1.8330071 0.94678528 0)
(1.6186381 0.96149419 -7.1848113e-21)
(1.7519548 1.0041452 -4.3114046e-21)
(1.6830303 0.99652441 5.0539168e-21)
(1.5764629 0.95371079 2.1564873e-20)
(1.3877229 0.89004478 4.0798101e-20)
(1.4683528 0.94617041 -4.6441211e-20)
(1.1919705 0.58521348 2.5025374e-19)
(1.2083847 0.67558719 -2.6259795e-19)
(1.2296514 0.76770691 0)
(1.3062554 0.84483104 0)
(1.2229478 0.4197899 1.2730198e-20)
(1.2234125 0.34020311 -1.3731811e-19)
(1.2320607 0.30064452 1.989422e-19)
(1.2779788 0.22946878 3.2466175e-19)
(1.304198 0.21024365 -1.0397617e-19)
(1.3630613 0.13610317 -1.166221e-19)
(1.3826553 0.095835473 1.1019337e-20)
(1.3579801 0.15108831 0)
(1.3399758 0.15681666 0)
(1.313711 0.021680017 -1.0180601e-19)
(1.3607454 0.050970869 1.1969921e-19)
(1.3871889 0.076378584 -9.7364806e-21)
(1.1822247 0.49920258 0)
(1.4254502 0.15541918 6.8303357e-20)
(1.5296024 0.1794235 0)
(1.6635961 0.21962494 -4.6985401e-20)
(1.6848149 0.22871119 0)
(1.7566544 0.26123935 7.9847732e-20)
(1.8176731 0.29409968 -5.4940536e-21)
(1.8632865 0.3275857 -4.9199302e-20)
(1.8913092 0.35699108 6.6577703e-20)
(1.9078065 0.37466662 -7.7786203e-21)
(1.9578585 0.46896278 -4.148331e-20)
(1.9278424 0.43210394 0)
(1.8839533 0.38730896 -8.6728818e-21)
(1.9783656 0.60577816 -2.4657316e-20)
(1.9702824 0.57134199 -1.797929e-21)
(1.9813515 0.64714889 -4.0991747e-20)
(1.9694569 0.54278339 -7.3346262e-20)
(1.9617211 0.51051612 -2.2464989e-20)
(1.9631926 0.73928381 1.0931599e-20)
(1.9565527 0.68769118 0)
(1.9472286 0.4770432 2.0159809e-20)
(1.9239637 0.80029486 -7.9544195e-20)
(1.9503122 0.75980863 0)
(1.8894566 0.83832127 0)
(1.8765918 0.90039995 -3.470313e-20)
(1.8174279 0.97379727 3.7588855e-20)
(1.6357098 1.0060389 -2.5293064e-20)
(1.7683861 1.0160881 0)
(1.706716 1.0220439 3.7719731e-22)
(1.5443803 0.99994823 1.2197726e-19)
(1.4172173 0.94166635 3.8146067e-20)
(1.3399791 0.89030569 0)
(1.4936407 0.99561728 -8.4843144e-20)
(1.1640808 0.54395987 -4.6954714e-19)
(1.1769785 0.63455169 4.0153524e-19)
(1.194363 0.72772188 -7.3302788e-20)
(1.2172362 0.82159079 0)
(1.2553334 0.86167504 -1.4276955e-19)
(1.1895963 0.41421019 0)
(1.1853869 0.37066654 0)
(1.2071601 0.27085038 4.3229024e-21)
(1.2598981 0.20855259 5.5471943e-21)
(1.3181645 0.17318266 9.9073453e-20)
(1.3810713 0.11305696 2.4369343e-19)
(1.3904248 0.095412039 -2.2622811e-19)
(1.3750765 0.12366717 -1.5164098e-19)
(1.3558486 0.12563377 0)
(1.3588388 0.0099294839 1.9093622e-19)
(1.3979639 0.037090086 -3.3217565e-19)
(1.4172594 0.058281158 0)
(1.1631786 0.45828321 0)
(1.2250048 0.12809022 -5.6135357e-20)
(1.4495259 0.1712888 -2.3019142e-20)
(1.5298511 0.1917658 2.8280766e-20)
(1.5646274 0.20506517 0)
(1.6291469 0.23325237 4.5753435e-20)
(1.7142828 0.26749878 -4.5733794e-20)
(1.7708321 0.30036282 6.0335988e-20)
(1.8048999 0.3272696 0)
(1.8440445 0.35578665 -4.31654e-20)
(1.9235811 0.44303836 0)
(1.8847053 0.40759802 -1.5061382e-21)
(1.834075 0.36042934 0)
(1.8676282 0.38985677 1.4845198e-21)
(1.9430863 0.58988977 8.805315e-20)
(1.9342082 0.55442096 1.1951531e-19)
(1.9481756 0.62913046 0)
(1.9248325 0.52090915 8.5044969e-20)
(1.9126442 0.4883743 0)
(1.9448609 0.70988593 -3.0643343e-21)
(1.9312003 0.65794929 4.4088204e-20)
(1.8934781 0.45535763 2.4441617e-20)
(1.9119893 0.77253101 4.0802515e-20)
(1.9021275 0.8153168 4.8109655e-20)
(1.9259267 0.75543656 0)
(1.8426712 0.83230444 0)
(1.8448881 0.91276875 0)
(1.8139832 0.94594491 -6.1597898e-20)
(1.7809204 1.0011749 0)
(1.6171063 1.0396533 -1.0608123e-20)
(1.7155093 1.0518455 3.5620577e-20)
(1.6812956 1.0589415 1.0431036e-20)
(1.5677707 1.0441973 -4.2134653e-20)
(1.3918597 0.98762134 -1.2458259e-19)
(1.3213505 0.93887898 -4.6920119e-20)
(1.4661871 1.0411043 2.0870117e-20)
(1.1233893 0.55414256 4.7594195e-19)
(1.1315442 0.64407952 -7.8725584e-20)
(1.1478961 0.73914679 2.598573e-19)
(1.1678569 0.83519966 1.7417276e-19)
(1.2422884 0.91663699 2.5049414e-19)
(1.1543652 0.35752352 -1.0060956e-19)
(1.1714327 0.27830526 1.0815999e-19)
(1.2275364 0.21943909 -7.0532017e-20)
(1.2767243 0.16641939 2.5081962e-19)
(1.3058854 0.154118 -2.1615219e-19)
(1.3873006 0.10841934 1.4359509e-19)
(1.4088018 0.07826029 2.8116802e-19)
(1.3747062 0.11244868 1.6264329e-19)
(1.3474773 0.10763126 0)
(1.3973079 0.018143013 0)
(1.423215 0.040628268 3.3413331e-19)
(1.4195985 0.061830381 -1.3533105e-20)
(1.1141963 0.44706093 0)