/*--------------------------------*- C++ -*----------------------------------*\
| =========                 |                                                 |
| \\      /  F ield         | OpenFOAM: The Open Source CFD Toolbox           |
|  \\    /   O peration     | Version:  2112                                  |
|   \\  /    A nd           | Website:  www.openfoam.com                      |
|    \\/     M anipulation  |                                                 |
\*---------------------------------------------------------------------------*/
FoamFile
{
    version     2.0;
    format      ascii;
    arch        "LSB;label=32;scalar=64";
    class       volScalarField;
    location    "0";
    object      p;
}
// * * * * * * * * * * * * * * * * * * * * * * * * * * * * * * * * * * * * * //

dimensions      [0 2 -2 0 0 0 0];

internalField   nonuniform List<scalar> 
8100
(
0.35145997
0.37098306
0.3650322
0.38729642
0.34139337
0.3800947
0.39199262
0.40561973
0.331964
0.36870824
0.40107295
0.36818265
0.40332207
0.42108548
0.30948268
0.34261719
0.37893587
0.41411473
0.42605587
0.43762726
0.30883259
0.32866802
0.36760161
0.40368142
0.43296095
0.43694583
0.45200406
0.30591003
0.33687639
0.30335835
0.37372529
0.4188524
0.44658779
0.45734606
0.46603826
0.27471711
0.32054346
0.29955835
0.34329425
0.37739974
0.40551475
0.43936781
0.46288891
0.46658424
0.47827579
0.25783761
0.27601145
0.32144811
0.29803879
0.2970894
0.34980029
0.37617652
0.41866629
0.45165839
0.47381691
0.48365362
0.48925127
0.2389237
0.2532674
0.30580822
0.28778061
0.26642993
0.32751399
0.37967822
0.41164575
0.44193424
0.4684345
0.48684423
0.49077463
0.49880357
0.23736911
0.24937432
0.30671825
0.28510575
0.26806497
0.32989096
0.38502654
0.3510656
0.42091144
0.45907553
0.47966519
0.49523077
0.50396481
0.50664221
0.21591975
0.22861631
0.28395426
0.26416152
0.24566188
0.3095727
0.3786993
0.36021797
0.43345723
0.40506157
0.45631303
0.47575279
0.49245033
0.50498408
0.50887347
0.51363796
0.19593403
0.21128032
0.22532308
0.25791683
0.28643381
0.24101469
0.31606458
0.38456351
0.34107799
0.43646139
0.41889078
0.46806069
0.48718873
0.50087644
0.51101048
0.51825156
0.51891501
0.17148264
0.18644066
0.2014584
0.23512731
0.25861845
0.21597496
0.29301937
0.37241543
0.34881449
0.44799865
0.40698395
0.48517712
0.46679056
0.49914803
0.50988929
0.51792177
0.52124504
0.52363183
0.16596837
0.18066529
0.194505
0.20904794
0.2283086
0.22801742
0.26276785
0.2993436
0.38325777
0.32829472
0.44385583
0.42112964
0.49735078
0.48132772
0.50875318
0.51658959
0.52194603
0.52719883
0.52655721
0.1394622
0.15324411
0.16607129
0.17812091
0.1877491
0.21000787
0.23529605
0.27334062
0.36761958
0.33854645
0.45955072
0.40919992
0.50983286
0.49798575
0.48033104
0.51728248
0.52245141
0.52632715
0.52868707
0.52957815
0.1183661
0.13226588
0.14506542
0.15800914
0.16759284
0.18328351
0.20477116
0.23903042
0.28175478
0.38149181
0.31624044
0.45299257
0.42637904
0.52292293
0.51452838
0.49796024
0.52680088
0.52844644
0.52923644
0.53205184
0.53108123
0.090664978
0.10376453
0.11568198
0.12767571
0.13688775
0.1504082
0.17070006
0.20485617
0.25156692
0.36359363
0.32897296
0.47449329
0.41403028
0.52777719
0.53174429
0.51674943
0.4965537
0.53157682
0.53143783
0.53167479
0.53255407
0.53266466
0.082122522
0.094228037
0.10527175
0.1159938
0.12519923
0.13714389
0.16703571
0.21125133
0.26240401
0.38072315
0.30317622
0.46844975
0.43595372
0.54747768
0.54645275
0.53830342
0.52188774
0.54141435
0.5373856
0.53429701
0.53339661
0.53266125
0.052391222
0.063476506
0.073399576
0.082462699
0.091315321
0.10569501
0.119353
0.17284938
0.22779316
0.35995335
0.31927977
0.4941412
0.4215974
0.55481011
0.55551274
0.55016373
0.53958677
0.52374856
0.5428448
0.53791908
0.53429283
0.53665173
0.53202409
0.031072534
0.041942998
0.052058366
0.060516782
0.068396928
0.07625154
0.089729409
0.077750542
0.12494622
0.18070102
0.24120581
0.38204148
0.28946662
0.48591621
0.45044922
0.57314614
0.57575838
0.56469881
0.57247092
0.55243467
0.55312589
0.54452088
0.53775125
0.53723711
0.53439211
0.0022111819
0.011150318
0.019759339
0.026803792
0.032653413
0.036957847
0.041063561
0.05755317
0.07961747
0.13803865
0.20124177
0.35854947
0.30982777
0.52034952
0.43560106
0.59305815
0.57816918
0.59588433
0.56485673
0.58999545
0.54919211
0.57902587
0.55185476
0.54263084
0.53525218
0.53021613
0.52764873
-0.020492987
-0.010225908
-0.001416906
0.0062428203
0.011838761
0.017346693
0.020113084
0.030486641
0.025484689
0.029524301
0.085923944
0.14690839
0.21659217
0.38752386
0.27424611
0.51366689
0.46981448
0.62300047
0.59751524
0.62100766
0.580615
0.61958962
0.59191847
0.60418308
0.56264427
0.55089626
0.54260137
0.5205216
0.5265789
0.53252728
-0.043879733
-0.038701347
-0.032665758
-0.026934968
-0.023063703
-0.020035093
-0.019379249
-0.015815413
-0.016916259
-0.013082317
0.039013218
0.097271777
0.1649288
0.36091223
0.3022714
0.56614067
0.45365882
0.65124189
0.59644711
0.61847381
0.64938947
0.57799531
0.64769273
0.59795407
0.6391859
0.56010036
0.54921256
0.53813301
0.52740864
0.52620769
0.53108261
-0.059760085
-0.053509148
-0.047530446
-0.042887987
-0.04076743
-0.038692641
-0.036909206
-0.047800029
-0.013131338
-0.062260768
0.039497604
0.097135589
0.18885504
0.3967551
0.26016545
0.57497171
0.48334764
0.6849103
0.61459943
0.63974727
0.67627374
0.59654872
0.68374973
0.65042871
0.66719551
0.57279109
0.56013349
0.54540583
0.51737407
0.52998886
0.53942228
-0.09097395
-0.083291635
-0.077914806
-0.075800431
-0.077357937
-0.077995361
-0.073863247
-0.064693366
-0.087346186
-0.059726997
-0.094807236
-0.014047204
0.04514821
0.14271884
0.3634924
0.30005272
0.52286306
0.60138522
0.46026911
0.71919413
0.63390352
0.61304867
0.66923041
0.71241953
0.59190429
0.71971573
0.68058201
0.71276395
0.56792709
0.55310005
0.54452355
-0.11221038
-0.10684379
-0.099988473
-0.0955985
-0.096790284
-0.10059854
-0.096814185
-0.12227263
-0.13080492
-0.10564176
-0.066769855
-0.13287041
-0.021660627
0.040504426
0.064934781
0.15995335
0.4114432
0.26693789
0.54042987
0.6550384
0.59526853
0.50776768
0.76282829
0.65292612
0.63743696
0.6922613
0.74268154
0.60741725
0.76581388
0.73776024
0.75019575
0.58087935
0.57101466
0.56009679
-0.13336385
-0.13235958
-0.12864427
-0.12584064
-0.12950604
-0.13155073
-0.13806732
-0.14770215
-0.1582529
-0.15598402
-0.12202748
-0.17590379
-0.095051926
-0.03926758
0.037047569
0.19500842
0.10012753
0.40272021
0.29959793
0.69500519
0.60811061
0.50280453
0.81027178
0.68100353
0.64719878
0.72897229
0.7924366
0.63735396
0.59855606
0.80876658
0.77805357
0.79960407
0.57071089
-0.15235379
-0.1530738
-0.14860573
-0.14471193
-0.14548348
-0.1507633
-0.15386871
-0.16498822
-0.18769898
-0.18872106
-0.20055579
-0.16808633
-0.15215696
-0.205909
-0.09807064
-0.02250449
0.049292204
0.17937686
0.12285257
0.35108284
0.45628133
0.25772771
0.75855476
0.67296784
0.56095683
0.85626815
0.69707973
0.68120043
0.75071103
0.81932323
0.65385475
0.61456189
0.86364298
0.83169499
0.8397321
0.5871116
-0.16565735
-0.17331919
-0.1699142
-0.17096088
-0.17515508
-0.1847827
-0.19411614
-0.1919567
-0.21730641
-0.20932415
-0.20988757
-0.2402364
-0.21679642
-0.1962076
-0.24294808
-0.16761635
-0.076624364
0.0090074627
0.20634104
0.066098027
0.35837977
0.43801005
0.30136876
0.81034269
0.68955668
0.56418314
0.89681338
0.73330491
0.69860876
0.79510777
0.86988618
0.64425196
0.68530048
0.60696078
0.90320117
0.8811462
0.8838123
-0.17879911
-0.19316041
-0.188789
-0.18943175
-0.19120266
-0.19828362
-0.2061621
-0.21382
-0.24592015
-0.25004595
-0.24193988
-0.26454272
-0.26914064
-0.26291418
-0.23069918
-0.21575953
-0.26500891
-0.22607754
-0.14740098
-0.054478519
0.0028258684
0.1741371
0.10141749
0.38315806
0.50670324
0.27657021
0.87210914
0.79030849
0.72919904
0.62801504
0.97214653
0.90321516
0.75157779
0.73445156
0.8125535
0.88198409
0.66566554
0.7061629
0.63115042
0.94446799
0.9344398
0.93479514
-0.16820096
-0.18861797
-0.20114966
-0.20432744
-0.2086821
-0.21347638
-0.22330401
-0.23576646
-0.24058443
-0.26844639
-0.26467165
-0.26127248
-0.31626523
-0.30738103
-0.29904526
-0.28430692
-0.23332034
-0.28635333
-0.29969204
-0.25420011
-0.20049063
-0.10080643
-0.039738342
0.22346966
0.057963991
0.36047918
0.51204972
0.92693261
0.85491431
0.72447958
0.64655141
0.99049181
0.99365174
0.95621987
0.79045772
0.75315454
0.85450582
0.9299633
0.65762277
0.69590185
0.73912654
0.97484077
0.98611832
-0.20847429
-0.21984736
-0.20800973
-0.22864457
-0.22965214
-0.23642894
-0.24713789
-0.2605825
-0.29565506
-0.29236397
-0.28854422
-0.33770681
-0.33148336
-0.32999702
-0.32273975
-0.31615689
-0.30042001
-0.32772409
-0.31737184
-0.29498775
-0.30619526
-0.27998103
-0.17211499
-0.086282392
0.20177162
-0.035974027
0.11054411
0.36234701
0.60068595
0.43867912
0.98517664
0.91784761
0.84357376
0.77257128
1.0454726
1.0493366
0.96387025
0.80657798
0.78812016
0.86616744
0.93551363
0.68264655
0.71841875
0.75881267
1.0212237
1.0341874
-0.22321397
-0.22862816
-0.24347766
-0.24018782
-0.24595749
-0.25712384
-0.27206455
-0.2817654
-0.31298178
-0.31293127
-0.30114461
-0.36997456
-0.36665464
-0.36660318
-0.3554883
-0.35941702
-0.33957104
-0.37423892
-0.34634547
-0.35203199
-0.35148781
-0.33030585
-0.21853315
-0.17818122
0.2101144
-0.059743696
0.085709937
0.28983587
0.60708447
0.45121781
1.0440844
0.97712747
0.9001039
0.74656922
1.0535877
1.0927937
1.0961761
1.0515019
1.0107217
0.84271036
0.80465242
0.90574279
0.97588676
0.71139173
0.7487141
0.78956464
1.0936084
-0.24141054
-0.22569849
-0.25503095
-0.24359101
-0.25497941
-0.26764463
-0.27964914
-0.29562219
-0.29275193
-0.33912258
-0.3356248
-0.32788836
-0.38980874
-0.39106665
-0.39143619
-0.37775791
-0.36857253
-0.38271971
-0.41461759
-0.36061452
-0.38663615
-0.39144529
-0.40546837
-0.31218616
-0.22422105
0.16195143
-0.13965139
0.0049013459
0.30083988
0.52718971
0.66912469
0.37718741
1.1030824
1.0399236
0.96790571
0.88198023
0.8089657
1.1224228
1.145778
1.1543024
1.0996885
1.0115933
0.85297714
0.83378996
0.90985586
0.97455333
0.73698841
0.77062111
0.81205477
1.1423701
-0.24232995
-0.24994259
-0.24402858
-0.26388866
-0.27196776
-0.28181741
-0.2948999
-0.30235426
-0.31935118
-0.35135576
-0.34515214
-0.33509138
-0.34931829
-0.4235492
-0.4192671
-0.42943077
-0.40846622
-0.39634618
-0.42733973
-0.45107614
-0.38714056
-0.43413472
-0.41176525
-0.42808862
-0.44185077
-0.36008712
-0.33416036
-0.21438928
0.15030668
-0.16746912
-0.01107949
0.22602983
0.52915575
0.67286897
0.3780321
1.146927
1.0947226
1.02372
0.93807246
0.78625096
1.1925075
1.2070818
1.1461104
1.0933365
1.0521746
0.88587656
0.84277867
0.94333387
1.0087962
0.76436105
0.80014659
0.83338991
1.2104119
-0.22889811
-0.25578557
-0.25586376
-0.2697046
-0.2698141
-0.29671353
-0.3032535
-0.31007799
-0.33711935
-0.37676445
-0.36963287
-0.34753365
-0.35820341
-0.44768798
-0.44245741
-0.43339488
-0.45419105
-0.42026456
-0.40814799
-0.46272934
-0.48916962
-0.39412669
-0.4654782
-0.46967326
-0.47010881
-0.50467641
-0.45684051
-0.44371032
-0.37797931
-0.28473044
0.061927504
-0.1124429
-0.25755216
0.21676577
0.59471915
0.45432921
0.71167031
0.29573926
1.1812785
1.1473901
1.0877491
1.0084065
0.91470603
0.83650433
1.2128953
1.2342459
1.245682
1.1863657
1.1305279
1.0461833
0.89118963
0.871782
0.94104899
0.99868172
0.78637746
0.81550521
0.84881587
1.2363913
-0.25764515
-0.26892994
-0.27137352
-0.27295854
-0.29319763
-0.30018507
-0.31434109
-0.3245064
-0.34635158
-0.38559774
-0.38637906
-0.3606991
-0.36527135
-0.47925971
-0.47018937
-0.46210893
-0.48499959
-0.44734491
-0.43324547
-0.49976396
-0.51036289
-0.51383767
-0.41678464
-0.51038161
-0.50110344
-0.50518778
-0.52729338
-0.52929166
-0.47518411
-0.46417755
-0.36662199
0.049614166
-0.12120529
-0.30431657
0.12149807
0.60778246
0.45684475
0.69055564
0.28936518
1.2530331
1.2095169
1.1446731
1.0669468
0.96973736
0.80382377
1.2875304
1.2972803
1.2351617
1.2926589
1.1748717
1.1251599
1.0833286
0.91657846
0.87148767
0.96749757
1.0242767
0.80844046
0.83753506
0.85258765
1.2609137
-0.25290916
-0.27354047
-0.27359519
-0.27478672
-0.28636558
-0.31007754
-0.29101349
-0.30922276
-0.32591819
-0.3622663
-0.40341271
-0.39528993
-0.36757149
-0.37996334
-0.49655591
-0.49987269
-0.48576749
-0.4713153
-0.46212047
-0.42789216
-0.53048823
-0.53361605
-0.53708892
-0.42027953
-0.54044851
-0.55739224
-0.54832853
-0.57637436
-0.55142659
-0.55936402
-0.49319831
-0.4046667
-0.0471282
-0.21078328
-0.30481892
-0.39222164
0.10864499
0.54221349
0.37248243
0.71760252
0.18637665
1.2596695
1.210695
1.1299399
1.048834
0.93916537
0.85112285
1.3188858
1.3317177
1.2723214
1.3270528
1.2067825
1.1481574
1.064079
0.91085254
0.88886677
0.95718624
1.0060893
0.82150478
0.83952746
0.87366118
1.2955515
-0.26030726
-0.27812169
-0.27793505
-0.28500772
-0.28681362
-0.29253281
-0.31583338
-0.32887683
-0.34755409
-0.36859324
-0.41072073
-0.40036352
-0.35345093
-0.39305242
-0.52358462
-0.52838593
-0.51172671
-0.49427961
-0.47959879
-0.46165996
-0.5614955
-0.55090633
-0.5543257
-0.44186
-0.57357955
-0.57958085
-0.56954029
-0.60454425
-0.613156
-0.57887196
-0.5492663
-0.49347785
-0.06037768
-0.20979141
-0.33393616
-0.44053432
0.0016681087
0.54837893
0.37183038
0.65037923
0.17830991
1.3159634
1.2532276
1.1826578
1.1059638
0.9936805
0.79649253
1.3546351
1.3194247
1.3676055
1.321242
1.2520967
1.3385221
1.3673194
1.1890546
1.1499055
1.0867938
0.931288
0.89468003
0.97444539
1.0221453
0.83327117
0.84979455
0.8670156
1.3376162
-0.26019077
-0.26199181
-0.25609696
-0.28290888
-0.29087719
-0.29251718
-0.31884219
-0.32237563
-0.34009806
-0.35255478
-0.35272866
-0.42639006
-0.41398656
-0.39917177
-0.40261087
-0.54490248
-0.54608708
-0.50598501
-0.49891192
-0.47763894
-0.46409026
-0.4701661
-0.59500274
-0.57909637
-0.57998827
-0.44344175
-0.61883984
-0.60771677
-0.58724587
-0.63929638
-0.6499637
-0.61049462
-0.59583507
-0.51424153
-0.13783342
-0.25506729
-0.37691835
-0.31056468
-0.43764485
-0.49524014
0.0018996376
0.47039938
0.25468841
0.69598943
0.078673499
1.3295311
1.294566
1.2319418
1.170258
1.0876001
0.95322434
0.86165401
1.3761261
1.3726208
1.3912037
1.4042923
1.3380038
1.2756737
1.3775554
1.4018248
1.2173466
1.128239
1.1854923
1.0588768
0.9098818
0.95273253
0.997009
0.83530342
0.84018622
0.87802655
1.3895168
-0.26333987
-0.28572424
-0.27697278
-0.29337177
-0.29691494
-0.29911882
-0.31888015
-0.33133449
-0.34882632
-0.36226678
-0.38589035
-0.42862826
-0.41286045
-0.41747664
-0.39354369
-0.56325557
-0.56772657
-0.54481854
-0.52609213
-0.50696974
-0.45537752
-0.49046079
-0.60510072
-0.61390615
-0.59766367
-0.59227069
-0.45168732
-0.6331716
-0.63540462
-0.63451208
-0.62364516
-0.66607981
-0.61144251
-0.64878038
-0.62657235
-0.63519967
-0.60040281
-0.54410842
-0.17117108
-0.24343899
-0.41560848
-0.34591434
-0.45783002
-0.51906017
-0.087760603
0.47284621
0.26709306
0.63446258
0.069589893
1.3899927
1.3291774
1.3007905
1.2405484
1.1231172
0.99585631
0.83742076
1.4260537
1.4139154
1.4127334
1.453585
1.3159731
1.3800332
1.2534031
1.401382
1.4370774
1.1323435
1.1982986
1.0686234
0.92018081
0.96276662
1.0053446
0.83383723
0.83985185
0.90366099
0.85670824
1.4124735
-0.2586619
-0.27265426
-0.28629975
-0.27540049
-0.29661186
-0.30200054
-0.31304082
-0.32730027
-0.33960068
-0.35393421
-0.37444645
-0.3802155
-0.44052969
-0.42999058
-0.39461876
-0.41785119
-0.56375288
-0.58033735
-0.55409263
-0.55014747
-0.52523717
-0.51239349
-0.46365495
-0.50280126
-0.6221188
-0.6188706
-0.61743522
-0.61140089
-0.45566114
-0.63885508
-0.65289037
-0.65436178
-0.64789041
-0.6769098
-0.66762421
-0.68180153
-0.6472404
-0.65039945
-0.63799529
-0.59179393
-0.56198283
-0.15681443
-0.27893316
-0.45814897
-0.3962177
-0.33283531
-0.49508123
-0.56706167
-0.07332488
0.52059856
0.35334668
0.16933045
0.67104647
-0.032025191
0.12562923
1.4131765
1.3804167
1.2987053
1.2363521
1.0610806
1.1746298
0.96367248
0.73574512
0.88021698
1.4553942
1.4476275
1.460834
1.4825635
1.3324559
1.3995284
1.2677582
1.4434835
1.4640978
1.1694957
1.1047244
1.2375709
1.0408939
0.93861187
0.9804966
0.81962577
0.81685573
0.90816733
0.85622158
1.4645132
-0.26218916
-0.27464513
-0.28899619
-0.28175728
-0.30012692
-0.31322332
-0.3170269
-0.33322268
-0.34875892
-0.36558107
-0.39373619
-0.40332395
-0.44039972
-0.42740053
-0.42714668
-0.59213476
-0.60046313
-0.57731224
-0.5382207
-0.5369195
-0.52428772
-0.47730142
-0.50076275
-0.63290784
-0.64870015
-0.62155997
-0.62991243
-0.46942695
-0.65262828
-0.68008533
-0.69842293
-0.65969012
-0.68077981
-0.70978409
-0.70061537
-0.69134676
-0.69221686
-0.69302563
-0.59764973
-0.62674346
-0.58862655
-0.20455622
-0.25385671
-0.47249944
-0.41569327
-0.35441036
-0.51407214
-0.56211861
-0.14083215
0.46384179
0.39202966
0.19884302
0.6063388
0.00086652264
0.016200079
1.4708027
1.3947363
1.3621419
1.3053631
1.131176
1.1901071
0.99152461
0.77947773
0.8443091
1.4964581
1.485838
1.4825488
1.5134418
1.3050919
1.3730695
1.4404282
1.4649863
1.5015698
1.1768673
1.1103559
1.2460208
1.0469704
0.94597524
0.98454168
0.80638883
0.80666778
0.8814014
0.82646655
1.490637
-0.2715702
-0.27992768
-0.29044937
-0.28615353
-0.31540524
-0.3178154
-0.32735089
-0.34004221
-0.35654161
-0.37952342
-0.41131252
-0.39976328
-0.45425877
-0.4382435
-0.42607007
-0.60746708
-0.59887542
-0.58711231
-0.54743803
-0.53739076
-0.52340503
-0.48118534
-0.51108415
-0.65129062
-0.6553315
-0.65560196
-0.6423107
-0.46598164
-0.68217303
-0.68796991
-0.69495804
-0.65805993
-0.70396629
-0.69381189
-0.70903051
-0.66796226
-0.71719021
-0.68432456
-0.68607014
-0.64144641
-0.66476819
-0.63695121
-0.19438218
-0.28161012
-0.43325768
-0.50123183
-0.41198767
-0.33131286
-0.53374389
-0.55209421
-0.11911639
0.50453244
0.30828886
0.1657014
0.65041424
-0.059615219
0.014467321
1.4939372
1.4546936
1.3663847
1.3064243
1.1122524
1.2421534
1.0438598
0.93713859
0.71670831
0.88221236
1.534253
1.5161949
1.526012
1.533815
1.5359974
1.3162414
1.3862335
1.4560423
1.5051646
1.5272963
1.144706
1.2131596
1.0803678
1.2832515
1.0188084
0.91390781
0.96930917
0.78048477
0.77469248
0.88290854
0.82113648
1.5419501
-0.27026707
-0.28030705
-0.29953741
-0.29155519
-0.32247921
-0.33439838
-0.33356888
-0.34530302
-0.3604468
-0.37537426
-0.38789145
-0.38338876
-0.41903101
-0.44980362
-0.4363439
-0.62001475
-0.63424743
-0.58718527
-0.5631914
-0.5514432
-0.5346252
-0.49007777
-0.51721644
-0.65490302
-0.63705313
-0.67363303
-0.64841894
-0.61961949
-0.47706489
-0.68598244
-0.67135589
-0.70423791
-0.69824595
-0.71369392
-0.68908956
-0.73318519
-0.68285536
-0.74277024
-0.70675877
-0.66409711
-0.69995803
-0.64085763
-0.64895974
-0.68317526
-0.63564638
-0.22286366
-0.26250018
-0.48204497
-0.52379587
-0.39688072
-0.33850743
-0.56136382
-0.59933302
-0.15421282
0.48166166
0.34381713
0.11906444
0.22475021
0.59497697
-0.081825237
0.013876061
1.5214518
1.4814232
1.408161
1.3618518
1.1640458
1.2341127
1.0424837
0.98652328
0.76160992
0.84318628
1.5645021
1.554771
1.5539562
1.5811875
1.5717752
1.3545243
1.4255211
1.4957428
1.5245151
1.5665392
1.1460868
1.2157855
1.0816575
1.2877498
1.0241067
0.91231873
0.98884359
0.94499838
0.76100907
0.75776455
0.8498874
0.79535302
1.5710026
-0.2595075
-0.27349619
-0.28302314
-0.30563607
-0.2919089
-0.30427875
-0.30765246
-0.34040161
-0.33707713
-0.35138801
-0.36855038
-0.38343162
-0.40817135
-0.41275694
-0.43198767
-0.46021
-0.44505486
-0.59133872
-0.62193967
-0.6519758
-0.60925017
-0.55286115
-0.54197962
-0.52527828
-0.48258694
-0.52183335
-0.68636134
-0.6803893
-0.66134932
-0.66523107
-0.65532323
-0.4691737
-0.70829164
-0.71406686
-0.71316832
-0.71056349
-0.69756237
-0.70487485
-0.72944993
-0.7259594
-0.71724465
-0.69600243
-0.71126658
-0.73215519
-0.67446407
-0.72393906
-0.64089278
-0.65500356
-0.68407625
-0.59821003
-0.20843268
-0.27631797
-0.47372513
-0.51185239
-0.55858853
-0.39891636
-0.34655723
-0.33150151
-0.56389629
-0.60535639
-0.13258014
0.3739932
0.52574526
0.26766218
0.059400951
0.16972272
0.61468939
0.014395411
-0.13030918
0.016562842
1.550572
1.5277392
1.4446576
1.5074843
1.4046146
1.3504007
1.1445547
1.2846467
1.085424
0.94744502
0.74537676
0.89369415
1.6002239
1.583863
1.596148
1.6036389
1.6057462
1.3608775
1.4339851
1.5069941
1.5643782
1.5905178
1.1105876
1.1790842
1.2506549
1.0492222
1.3238925
0.88682724
0.98235919
0.9313013
0.72235253
0.72411151
0.76894386
0.84186083
0.80269748
1.6127386
-0.27059066
-0.27134827
-0.27861014
-0.28751471
-0.30449137
-0.29966516
-0.31713111
-0.31214476
-0.32631922
-0.3246735
-0.34076524
-0.35715205
-0.37411626
-0.3918679
-0.42176337
-0.43029177
-0.43999464
-0.45468313
-0.61577529
-0.62437219
-0.63831752
-0.636717
-0.57832293
-0.58508739
-0.56145021
-0.54719414
-0.5093485
-0.4987556
-0.68577065
-0.68765763
-0.66581972
-0.66190288
-0.66248773
-0.48305202
-0.71209699
-0.69367892
-0.72053139
-0.73256527
-0.70296439
-0.73007654
-0.76189686
-0.73713278
-0.74470665
-0.72340473
-0.7293742
-0.6659941
-0.70577202
-0.7303018
-0.68480389
-0.70735886
-0.61264991
-0.64946661
-0.66746957
-0.68549678
-0.22861355
-0.26443016
-0.47731473
-0.50940747
-0.53693664
-0.41800739
-0.39578237
-0.30261325
-0.61136379
-0.62261889
-0.15846504
0.42867373
0.46866974
0.2628843
0.082808089
0.1511596
0.69419555
0.58197131
-0.084232014
-0.07508663
0.043634879
1.5805326
1.5758044
1.5104615
1.5232819
1.4625873
1.3950282
1.1883366
1.2717051
1.0666843
0.97962017
0.79233075
0.8628205
1.6302852
1.6212054
1.6211918
1.6398391
1.6400432
1.3977643
1.4715968
1.5452569
1.5800502
1.6300067
1.1055323
1.1753953
1.2483079
1.0422299
1.322927
0.89439425
0.85952778
1.004871
0.94957022
0.70653964
0.70219983
0.74186292
0.78387118
1.6387091
-0.26174824
-0.26681655
-0.27442405
-0.28327909
-0.29687811
-0.31189414
-0.29816877
-0.31379328
-0.33378219
-0.33300264
-0.34436638
-0.34458192
-0.35970581
-0.38933175
-0.40853332
-0.4327122
-0.43303145
-0.44824576
-0.4652617
-0.60701202
-0.63094395
-0.62956809
-0.63738006
-0.60614134
-0.60813602
-0.57429265
-0.55378762
-0.53700077
-0.49644657
-0.52401762
-0.53125959
-0.69719684
-0.69176858
-0.68207384
-0.67605338
-0.66717966
-0.47472114
-0.72775724
-0.7026663
-0.72670929
-0.7311919
-0.70258401
-0.73525281
-0.72785784
-0.7335171
-0.75739873
-0.74235855
-0.70641602
-0.72962148
-0.74309307
-0.6877668
-0.67185646
-0.63170936
-0.66188545
-0.67696593
-0.69725929
-0.22510798
-0.25677496
-0.50814578
-0.50245691
-0.53937221
-0.50412672
-0.38789056
-0.42253395
-0.41070315
-0.26549162
-0.30208439
-0.63240603
-0.63821846
-0.63169641
-0.20847894
0.42736941
0.50883167
0.2791018
0.38170032
0.097826452
0.30376173
0.13711301
0.65114503
0.64628252
-0.07539338
-0.07792931
-0.02351573
0.12848554
1.6111615
1.586659
1.5105313
1.5646702
1.4828363
1.4420497
1.3957323
1.1940583
1.2928745
1.0808488
1.0066336
0.76915676
0.90259455
1.6649601
1.6517534
1.6623327
1.666932
1.6743329
1.3982434
1.4736752
1.5494948
1.6188963
1.6522048
1.135517
1.0674473
1.2076246
1.2820232
1.3574881
0.87832928
0.83120938
0.99201135
0.93382822
0.67888045
0.67225197
0.7097991
0.75229054
0.79578767
1.6569635
-0.2673634
-0.27438025
-0.28126192
-0.28832818
-0.28828421
-0.3117579
-0.30252988
-0.32260076
-0.33451501
-0.3316117
-0.3482183
-0.35514124
-0.37339736
-0.38619404
-0.40467931
-0.41259388
-0.41284857
-0.43818471
-0.45699363
-0.60536174
-0.63696505
-0.64373832
-0.65387495
-0.58152998
-0.60765056
-0.57498631
-0.56238689
-0.54693273
-0.49843307
-0.50506517
-0.53168313
-0.70018945
-0.69284355
-0.68008393
-0.67554421
-0.66415504
-0.48159065
-0.73026015
-0.71715347
-0.74080121
-0.73710351
-0.71511332
-0.74609204
-0.74980098
-0.72779746
-0.76110914
-0.73946394
-0.7362768
-0.76443691
-0.73315612
-0.72346199
-0.70976608
-0.75588227
-0.72591699
-0.62510884
-0.6847879
-0.68282322
-0.69867113
-0.22330824
-0.2239017
-0.45180342
-0.48500731
-0.52488121
-0.60762606
-0.4961919
-0.39242652
-0.35372662
-0.37254669
-0.29717182
-0.56509729
-0.59473212
-0.63403187
-0.19411433
-0.096380857
0.43459896
0.52661301
0.2524055
0.32661454
0.11905148
0.19437914
0.14388571
0.70353542
0.60197542
-0.014897455
-0.14220514
0.016107162
0.037622874
1.6310118
1.6163192
1.5336674
1.5842739
1.5109144
1.478948
1.3389338
1.4330785
1.1454809
1.2279199
1.2710877
1.0754584
0.94905843
1.0473424
0.81796793
0.87975437
1.6938542
1.6875729
1.6920534
1.6970523
1.7053291
1.4332409
1.5089637
1.5854446
1.627446
1.6887059
1.1262002
1.0568956
1.1992894
1.2745803
1.3508153
0.89590308
0.84421865
1.0154489
0.9531843
0.66004197
0.64483619
0.68514862
0.72763319
0.77273149
1.6673276
1.6785758
-0.2638485
-0.27054465
-0.27803289
-0.28504165
-0.2936905
-0.29838434
-0.32082254
-0.30582005
-0.32637756
-0.34314828
-0.34157206
-0.34933123
-0.36220351
-0.38685202
-0.36693494
-0.39412663
-0.40838073
-0.43753974
-0.436748
-0.45234526
-0.46701821
-0.61751873
-0.63004541
-0.63956168
-0.64868516
-0.57957825
-0.61068539
-0.57045153
-0.55374589
-0.54066539
-0.49234593
-0.50168226
-0.53460731
-0.70949496
-0.70165599
-0.69110654
-0.68358021
-0.67154249
-0.47443618
-0.73392908
-0.7093429
-0.73243492
-0.73439235
-0.71359275
-0.73363587
-0.73924865
-0.76039101
-0.75246932
-0.72987769
-0.72496185
-0.74209325
-0.76458866
-0.69359534
-0.70239605
-0.71506157
-0.65623846
-0.67435931
-0.69918502
-0.71638291
-0.22768214
-0.24394764
-0.47175549
-0.48488304
-0.48593983
-0.49773467
-0.63294512
-0.57104422
-0.51737677
-0.36780935
-0.36427339
-0.36511106
-0.40387453
-0.29013055
-0.27463568
-0.56998274
-0.5573061
-0.64632744
-0.60681009
-0.17677837
-0.15035734
0.50087167
0.39508037
0.56430483
0.3132053
0.35646463
0.14929038
0.10209626
0.22451342
0.71277758
0.56410652
-0.046641079
-0.054084654
-0.070029059
0.10406642
-0.042346338
1.655163
1.63089
1.5627032
1.5358934
1.6121225
1.5347026
1.4671069
1.5014001
1.3662086
1.4362511
1.1350785
1.2184917
1.2937496
1.1076435
0.99431262
1.0118517
0.83237395
0.94483534
1.7310561
1.6949733
1.721712
1.7226034
1.7224289
1.4270966
1.5028889
1.5788521
1.6617187
1.6979818
1.6807448
1.1551233
1.0833058
1.229841
1.306015
1.3825298
0.87627413
0.822528
0.99873259
0.93506758
0.62036365
0.61938023
0.6512669
0.69466524
0.73888081
0.78536412
1.7048456
1.7030591
-0.26416368
-0.27101061
-0.27805297
-0.28461429
-0.29255236
-0.30264074
-0.31751796
-0.31505288
-0.33320464
-0.34380394
-0.33652328
-0.35357219
-0.35945738
-0.37026672
-0.38975142
-0.40433016
-0.41566187
-0.44034706
-0.44295045
-0.45934243
-0.61477729
-0.63780758
-0.64692151
-0.65923768
-0.58881515
-0.60454613
-0.58017033
-0.56387359
-0.54838046
-0.50097979
-0.5115961
-0.52658892
-0.71917907
-0.69024293
-0.68795103
-0.68918654
-0.65949223
-0.4830521
-0.72973893
-0.7403569
-0.70632807
-0.75205805
-0.72499526
-0.76653757
-0.71094415
-0.75741153
-0.7816167
-0.72390372
-0.77829136
-0.70645926
-0.68910701
-0.715857
-0.76161657
-0.76454895
-0.79226906
-0.73660053
-0.73603053
-0.69379936
-0.66071221
-0.6301755
-0.70835004
-0.65985142
-0.73955795
-0.69281013
-0.18086488
-0.29602964
-0.44622516
-0.4570628
-0.53558966
-0.57242593
-0.52960149
-0.5834269
-0.4376282
-0.46791621
-0.35802188
-0.33728404
-0.32346537
-0.29149393
-0.33181872
-0.60490078
-0.63348361
-0.61284627
-0.65179444
-0.13250288
-0.21592358
0.50054848
0.38717461
0.5655095
0.34860562
0.32259138
0.37624741
0.071863116
0.021267539
0.28614277
0.20747508
0.27512086
0.093026479
0.70102921
0.74065601
0.64139454
-0.11559933
0.055190812
0.059673833
-0.10506923
-0.12313624
-0.076479354
0.13085739
1.6706341
1.6569946
1.5770541
1.5707204
1.6255526
1.5553412
1.5012546
1.543731
1.3893142
1.3459928
1.4466046
1.1692275
1.2521219
1.2917787
1.0928793
0.97599683
1.0509329
0.81833549
0.80662664
0.96456842
1.734506
1.7378372
1.727208
1.7471133
1.7497569
1.7464559
1.4586827
1.5337492
1.610465
1.6434466
1.6794192
1.7245356
1.7156578
1.1400317
1.0674732
1.2153896
1.2919773
1.3685705
0.8373512
0.89340047
1.021548
0.95505061
0.59663062
0.58890791
0.63331584
0.67357439
0.71472746
0.76092297
1.7139519
1.7275254
-0.2668886
-0.27555897
-0.28053534
-0.28983028
-0.29626048
-0.30054834
-0.32209121
-0.30850786
-0.30720496
-0.33156101
-0.32723545
-0.3462115
-0.35742448
-0.35381709
-0.3656399
-0.3831088
-0.39492635
-0.4057834
-0.43572245
-0.44581648
-0.45101887
-0.46881929
-0.62228035
-0.63005598
-0.6412643
-0.65329037
-0.58565133
-0.61078335
-0.5708439
-0.55535382
-0.54053344
-0.49321796
-0.50687953
-0.53306446
-0.71709404
-0.71939741
-0.6998265
-0.68892688
-0.68726029
-0.47542494
-0.75137104
-0.73274413
-0.75960171
-0.75310362
-0.75373582
-0.71684968
-0.76698296
-0.77140778
-0.75184439
-0.74813846
-0.78690594
-0.77597101
-0.7715683
-0.73702914
-0.75344178
-0.7582217
-0.73430373
-0.75408269
-0.7426944
-0.77288296
-0.73625615
-0.73790018
-0.63913076
-0.66852747
-0.69184664
-0.67449946
-0.70235238
-0.70496039
-0.73354866
-0.19240234
-0.22229421
-0.17220241
-0.45353048
-0.4530185
-0.372051
-0.62083419
-0.55496187
-0.53987721
-0.4307319
-0.6657423
-0.62512557
-0.46087875
-0.54905138
-0.27931589
-0.32960656
-0.33652895
-0.33795555
-0.4039328
-0.32640547
-0.61066352
-0.62085458
-0.63121422
-0.64737781
-0.26910312
-0.063078332
0.50230343
0.50151407
0.45020948
0.53711315
0.21161065
0.3774786
0.29941446
0.7394755
0.65124287
0.63188455
0.64419355
-0.23747315
1.6994476
1.6685425
1.6039396
1.5770357
1.6515936
1.5571939
1.5378668
1.518057
1.4014966
1.3421013
1.4923638
1.45629
1.1730631
1.2552648
1.315632
1.1352476
0.99502858
1.0331276
0.84846322
0.90999516
0.79417148
0.88007713
1.7576734
1.7641611
1.7494441
1.7589809
1.777818
1.7760301
1.4440613
1.516982
1.5878412
1.636862
1.6783126
1.6986986
1.7303444
1.7290753
1.0925571
1.1669594
1.243366
1.3203339
1.3966891
0.81328559
0.87041197
0.99957049
0.93274959
0.56582819
0.56516348
0.58832171
0.60532755
0.64631181
0.68205598
0.72468065
0.77340782
1.7376919
1.7454236
-0.26720528
-0.27540898
-0.28064519
-0.28885894
-0.29655825
-0.30625144
-0.32158757
-0.31451694
-0.30953529
-0.34763793
-0.33520892
-0.36619263
-0.36321639
-0.36846227
-0.38498559
-0.40060052
-0.41783898
-0.43825079
-0.44973945
-0.46111834
-0.61718445
-0.63812693
-0.65057178
-0.66638364
-0.59253651
-0.61103046
-0.57944472
-0.56322241
-0.54800347
-0.50134655
-0.51461859
-0.52606203
-0.68795265
-0.73626244
-0.7088921
-0.69055151
-0.66087755
-0.70255942
-0.6767226
-0.48325741
-0.74923726
-0.73328317
-0.72983843
-0.74666854
-0.7589585
-0.7332841
-0.76492158
-0.76325641
-0.75456694
-0.75966402
-0.74976869
-0.78286801