/*--------------------------------*- C++ -*----------------------------------*\
| =========                 |                                                 |
| \\      /  F ield         | OpenFOAM: The Open Source CFD Toolbox           |
|  \\    /   O peration     | Version:  2112                                  |
|   \\  /    A nd           | Website:  www.openfoam.com                      |
|    \\/     M anipulation  |                                                 |
\*---------------------------------------------------------------------------*/
FoamFile
{
    version     2.0;
    format      ascii;
    arch        "LSB;label=32;scalar=64";
    class       volVectorField;
    location    "0";
    object      U;
}
// * * * * * * * * * * * * * * * * * * * * * * * * * * * * * * * * * * * * * //

dimensions      [0 1 -1 0 0 0 0];

internalField   nonuniform List<vector> 
8100
(
(0.77334724 0.02007868 1.3107245e-19)
(0.84272107 0.036578849 -5.9539729e-20)
(0.98663465 0.065845044 1.2744708e-20)
(0.70989467 0.029705224 -5.3529855e-20)
(1.0961492 0.073643845 0)
(1.0123938 0.089368164 0)
(0.45702638 0.0094062142 5.5595804e-20)
(0.77032102 0.046962487 2.7345977e-19)
(1.2101971 0.1051739 -5.1662036e-20)
(1.1215566 0.12324661 0)
(0.90891919 0.080571017 1.4410155e-20)
(0.2779542 0.0037617392 4.9099502e-20)
(0.25142352 0.0055363875 -1.6279833e-19)
(0.64430471 0.035753597 -2.9131917e-19)
(1.2731991 0.10554386 0)
(1.214636 0.12817542 2.892869e-20)
(1.1411874 0.1500005 0)
(0.93519152 0.10289426 -1.2422371e-19)
(0.41418041 0.012251123 5.8071303e-20)
(0.69772663 0.053818441 6.2268176e-20)
(1.357741 0.13370692 0)
(1.31039 0.16004584 3.4619144e-20)
(1.2382247 0.1832458 0)
(1.054132 0.14208717 0)
(0.82897134 0.089819358 1.22877e-19)
(0.22334924 0.0069972477 -6.1723773e-20)
(0.57590225 0.039935135 -4.0836625e-21)
(1.3756048 0.14698968 0)
(1.3129991 0.18361728 0)
(1.3669166 0.16146269 0)
(1.2558525 0.20419104 0)
(1.0644077 0.1655077 2.9722093e-20)
(0.85179711 0.11106432 0)
(0.36792931 0.01460862 -6.4398274e-20)
(0.62364285 0.058164431 -1.3702681e-19)
(1.452312 0.15848611 1.2742602e-21)
(1.3850188 0.20687042 5.5383549e-20)
(1.4339134 0.18634573 0)
(1.3455721 0.22861499 -7.1999525e-20)
(1.2367298 0.21698528 0)
(1.1642409 0.20279882 3.2946183e-20)
(0.95958033 0.14783608 -6.8409797e-20)
(0.7487456 0.09351588 -4.3945684e-21)
(0.19245099 0.0079799812 1.2967842e-19)
(0.50712586 0.041282412 1.3749407e-19)
(1.488998 0.15308329 9.4515412e-20)
(1.4770211 0.1788984 -4.4929436e-20)
(1.3901248 0.22819904 2.4036208e-21)
(1.4351435 0.211868 9.9437388e-21)
(1.4466015 0.19876788 -3.1372502e-20)
(1.3629831 0.25334505 0)
(1.3087288 0.25306483 0)
(1.1615122 0.22864895 7.6534294e-20)
(0.9728776 0.16839924 7.2706493e-20)
(0.77165108 0.11245274 -1.5278978e-19)
(0.31930698 0.015682316 1.1002342e-21)
(0.55276614 0.058862698 1.4995874e-19)
(1.5466326 0.16677744 7.2827792e-20)
(1.5275162 0.18979505 3.8387262e-20)
(1.4532614 0.25347208 -2.1909816e-19)
(1.4876132 0.2363943 0)
(1.5118446 0.21309031 2.6819793e-20)
(1.4185441 0.2728508 -2.2854735e-19)
(1.3164145 0.26433835 -2.1053967e-20)
(1.240174 0.26100176 5.7645496e-21)
(1.0725905 0.2074845 -1.3994275e-19)
(0.87720394 0.1480003 0)
(0.67431466 0.093124867 1.5121113e-19)
(0.16218014 0.0082572989 0)
(0.44288016 0.040420526 -1.4605909e-19)
(1.5647261 0.1843598 4.2518445e-21)
(1.5457166 0.20880082 -4.1323473e-20)
(1.4648995 0.2724948 3.2689771e-19)
(1.4948529 0.25037841 8.1621496e-20)
(1.5289459 0.23286498 0)
(1.4302368 0.29404654 8.4469271e-20)
(1.2985303 0.27522794 1.524062e-19)
(1.3876378 0.29083371 8.2074835e-20)
(1.238639 0.27535631 -1.6075484e-19)
(1.0729581 0.22461635 -8.5168761e-20)
(0.89222817 0.16523989 -5.217008e-21)
(0.70044986 0.10973062 -5.04437e-21)
(0.27242081 0.015520991 0)
(0.48917634 0.056842536 -6.8446711e-20)
(1.6192031 0.19889332 -4.3982236e-21)
(1.5983537 0.22339861 0)
(1.5280695 0.29848802 -7.8790372e-20)
(1.552164 0.27196551 7.6394824e-20)
(1.5767717 0.24688427 -4.1128195e-20)
(1.4852984 0.31854639 -1.6268905e-19)
(1.3496145 0.3052911 1.3833026e-19)
(1.3971329 0.31187334 -5.5688047e-20)
(1.2116204 0.27739996 0)
(1.3070219 0.30821286 5.5386143e-20)
(1.1469134 0.25399458 5.3454644e-20)
(0.98368368 0.19855731 9.4530792e-20)
(0.80587313 0.14255161 -7.9762966e-20)
(0.60986137 0.089212962 -9.9527554e-21)
(0.13463285 0.0079231323 0)
(0.38705198 0.038147299 7.4497755e-20)
(1.6578772 0.19276964 0)
(1.6348322 0.2177239 0)
(1.6142002 0.24167868 0)
(1.5687668 0.29443907 2.275527e-21)
(1.5356158 0.31978133 6.660368e-20)
(1.5916202 0.2670584 2.9983847e-20)
(1.4924564 0.3381471 4.0993155e-20)
(1.351012 0.31639329 -9.631736e-20)
(1.4447042 0.33391629 4.6068125e-20)
(1.2603525 0.31132565 -1.0399594e-19)
(1.3103085 0.32515623 -5.6026978e-20)
(1.1378937 0.26698876 -6.1917487e-20)
(0.99462807 0.21182528 0)
(0.82785022 0.15671189 -1.5204355e-21)
(0.64213075 0.10362624 -2.0706217e-20)
(0.2304613 0.01446169 0)
(0.43588481 0.053077269 0)
(1.7089544 0.20576054 0)
(1.6854053 0.23084996 -3.132905e-20)
(1.6638497 0.25637607 -3.3426581e-20)
(1.6245483 0.31270942 0)
(1.58853 0.34239861 4.5271272e-21)
(1.6439049 0.28320416 4.4210899e-20)
(1.5417639 0.36404604 8.3242655e-20)
(1.4019155 0.34522941 1.964639e-19)
(1.4485135 0.35324404 -9.8551847e-20)
(1.2564416 0.31819675 8.350069e-20)
(1.3560356 0.35013121 1.0041315e-19)
(1.0748295 0.24390955 1.1398761e-19)
(1.2025045 0.29942987 0)
(0.92118894 0.1884801 0)
(0.75047444 0.13439717 -6.6986088e-20)
(0.5584199 0.0830941 0)
(0.11104067 0.0071239938 0)
(0.34253247 0.035134864 0)
(1.7207652 0.22424081 0)
(1.6986032 0.24969685 6.6557125e-20)
(1.6782002 0.27597207 -3.6683565e-20)
(1.6596128 0.30368681 0)
(1.6416763 0.33152983 1.938641e-20)
(1.6304934 0.34660904 0)
(1.5879898 0.36741558 0)
(1.5434001 0.38571943 -3.9503872e-20)
(1.4033426 0.36117619 -9.6134806e-20)
(1.4963997 0.38039446 -4.3221218e-20)
(1.3076232 0.34941362 8.7988887e-20)
(1.3559955 0.36551628 -1.9207051e-19)
(1.0825245 0.25398283 -1.1845274e-19)
(1.2042167 0.30840372 0)
(0.94119513 0.19948576 1.0196851e-19)
(0.78084904 0.14596774 1.792663e-19)
(0.59871853 0.095572963 6.2012479e-20)
(0.19551321 0.013070485 7.3369841e-20)
(0.39575286 0.048291132 0)
(1.7664122 0.23688686 0)
(1.7442884 0.2626741 2.6777055e-20)
(1.7243271 0.28951393 0)
(1.7068082 0.31723973 -3.245186e-20)
(1.6947295 0.34595482 -6.8633185e-20)
(1.6735808 0.37394782 -2.5346045e-21)
(1.6358479 0.39399923 0)
(1.5911529 0.41431092 -3.7165625e-20)
(1.4495804 0.39116007 0)
(1.4971974 0.400285 0)
(1.3075213 0.36083906 -4.3717014e-20)
(1.4012916 0.395912 0)
(1.026194 0.23152594 -1.1199462e-19)
(1.1531809 0.28732319 0)
(1.261235 0.34196292 8.3301697e-20)
(0.87769197 0.17614321 -9.4837083e-20)
(0.71194752 0.12390557 2.1540249e-20)
(0.52280946 0.075802081 -7.8127886e-20)
(0.092099249 0.0059488561 -6.8516716e-20)
(0.31152864 0.031950831 0)
(1.8000565 0.22978029 -2.4854925e-20)
(1.7773049 0.25528823 -2.7278464e-20)
(1.7564927 0.28177697 0)
(1.737666 0.30920955 2.6281009e-20)
(1.7221563 0.33841063 -1.5731184e-20)
(1.7093932 0.36820217 1.7728421e-20)
(1.677809 0.39070731 3.5843806e-20)
(1.6377766 0.41613395 3.0010431e-20)
(1.5909333 0.43675906 0)
(1.448793 0.40916128 0)
(1.5435276 0.43100639 0)
(1.3539986 0.39395515 2.3125151e-19)
(1.4001858 0.41150564 -9.81002e-20)
(1.0452815 0.23987854 -2.3078669e-21)
(1.1633584 0.29575376 0)
(1.2653678 0.3519544 -4.0618326e-20)
(0.90653262 0.18458852 0)
(0.75160493 0.13289638 0)
(0.57243964 0.086203043 0)
(0.16876847 0.011124551 0)
(0.37097874 0.043399892 0)
(1.8423288 0.241287 3.5116103e-20)
(1.8202617 0.26726301 2.0145433e-20)
(1.8003235 0.29437838 0)
(1.7822454 0.32287328 2.0014752e-20)
(1.7665362 0.35282293 2.8096904e-21)
(1.7501115 0.38368746 -1.7913574e-20)
(1.7289087 0.41645343 -5.3198274e-20)
(1.6837602 0.44526427 7.1775933e-20)
(1.6351893 0.46779174 3.4523756e-20)
(1.494254 0.44215741 4.4523075e-20)
(1.5417114 0.45207374 -6.8600303e-20)
(1.3539513 0.40668639 -1.3758151e-19)
(1.4449647 0.44674969 0)
(1.1182454 0.27194384 0)
(0.99622621 0.21538898 1.0221723e-19)
(1.2234604 0.33057186 0)
(1.311605 0.38467648 -4.5071147e-20)
(0.85016021 0.1598207 0)
(0.69093038 0.11130326 0)
(0.50524107 0.067660834 0)
(0.079282756 0.0043524205 0)
(0.2984273 0.029406063 1.3416257e-19)
(1.8511458 0.25915974 -1.7799872e-20)
(1.8305445 0.28583329 -2.1082324e-20)
(1.8121131 0.31375692 -1.2717493e-20)
(1.7953378 0.34340776 1.4071653e-20)
(1.7808983 0.37427101 1.202584e-20)
(1.7637614 0.4088775 2.1584675e-20)
(1.7325408 0.44018314 4.6746247e-20)
(1.6832395 0.46977421 -1.0506841e-19)
(1.6318106 0.49200096 -4.1949286e-20)
(1.4912848 0.46131873 -4.6610646e-20)
(1.58424 0.4857913 1.5154786e-19)
(1.3978332 0.44408193 9.7744909e-20)
(1.4419853 0.46314389 -5.2205634e-20)
(1.139255 0.27931645 -5.7082093e-20)
(1.0223656 0.2199037 -1.0443345e-19)
(1.2310595 0.33706607 5.992062e-22)
(1.3146737 0.39437034 1.7083002e-19)
(0.88705471 0.16518783 1.4312354e-19)
(0.74010339 0.11738519 4.2602146e-20)
(0.56590595 0.075979791 -7.6146821e-20)
(0.15459492 0.0093419334 0)
(0.36796484 0.039707946 -1.3072292e-19)
(1.8891228 0.26958193 -1.2170083e-21)
(1.8697102 0.29656091 1.2080864e-20)
(1.8522013 0.32492019 -8.4083056e-21)
(1.8365527 0.35511696 -9.5331608e-21)
(1.8220628 0.38743631 7.1279042e-21)
(1.8068898 0.42358112 -2.0626406e-20)
(1.7822118 0.46878458 1.6399485e-20)
(1.7259843 0.50034145 -2.0816787e-20)
(1.6724686 0.52589738 -4.8860954e-21)
(1.5320172 0.49741337 -4.9444166e-20)
(1.5789895 0.50843696 -6.6338455e-20)
(1.3961096 0.45741854 -5.4495846e-20)
(1.4800592 0.50101703 -4.9576933e-20)
(1.1964475 0.31337566 3.8351327e-20)
(1.1068173 0.25525564 1.5227703e-19)
(0.97619566 0.19190476 4.9890731e-20)
(1.2794401 0.37040875 -4.5460586e-20)
(1.3562224 0.43340156 -1.4552876e-19)
(0.83853108 0.14015627 1.3848328e-19)
(0.68894373 0.097053743 -8.2075227e-20)
(0.51126422 0.059288302 -7.3510591e-20)
(0.071919902 0.0058179563 0)
(0.3158025 0.02878431 0)
(1.9170535 0.2610585 -8.5678917e-21)
(1.897082 0.28747148 -1.297043e-21)
(1.8790803 0.31520564 -6.9928744e-21)
(1.8631759 0.3445691 9.0261174e-21)
(1.8486986 0.37591021 2.1982197e-20)
(1.8351677 0.40942578 -2.6760731e-20)
(1.8207927 0.44418965 -1.1482157e-20)
(1.816052 0.46563481 -4.3325765e-21)
(1.7750087 0.50024557 0)
(1.7204084 0.52800153 -4.4232205e-21)
(1.6652935 0.55231387 3.7025199e-20)
(1.5252297 0.51751919 1.5011071e-19)
(1.617311 0.54566922 -2.2720182e-20)
(1.431522 0.49544257 0)
(1.4725154 0.51774758 0)
(1.2258023 0.32536319 1.6362589e-19)
(1.124321 0.25288625 -2.0150961e-19)
(1.0106052 0.19284214 -5.1962475e-20)
(1.2765967 0.37274232 -9.6750621e-20)
(1.3580136 0.44055243 5.8317872e-20)
(0.8831748 0.14234518 -1.8538046e-19)
(0.7481878 0.10000812 0)
(0.58605263 0.064314823 7.4200933e-20)
(0.1388741 0.017657898 0)
(0.40778949 0.037460526 3.2486123e-20)
(1.9491124 0.26985896 -4.7075145e-22)
(1.9307831 0.29660208 1.2191896e-21)
(1.9138338 0.32455813 -1.7474279e-21)
(1.8986608 0.35404768 -1.4408634e-21)
(1.8851538 0.38537763 -1.3156385e-20)
(1.8730818 0.41809705 -1.9242943e-21)
(1.8642599 0.45136835 0)
(1.8526569 0.4850952 -1.2140208e-20)
(1.8146981 0.52820197 1.4986116e-20)
(1.7594328 0.56057691 2.0287514e-20)
(1.7025313 0.58978341 0)
(1.5601891 0.55764124 0)
(1.6076923 0.57002985 4.3249706e-20)
(1.4245934 0.50760455 0)
(1.5029175 0.55965271 5.4382965e-20)
(1.2196988 0.31497217 1.3212865e-19)
(1.0828309 0.21723667 0)
(1.180245 0.27701759 -1.1546186e-19)
(0.97000092 0.16489141 5.0865715e-20)
(1.3025558 0.38956501 8.6227123e-20)
(1.3911125 0.48189881 0)
(1.334256 0.42302193 -1.908442e-19)
(0.84380126 0.1182913 0)
(0.70772652 0.081417751 8.1022075e-20)
(0.54619278 0.049509026 0)
(0.11679518 0.0274568 -1.8413305e-19)
(0.38201719 0.028388448 -1.5483399e-19)
(1.9668896 0.26270021 0)
(1.953112 0.28734567 -5.7506075e-22)
(1.9375529 0.31434152 -5.3096954e-23)
(1.9223046 0.34308811 0)
(1.908651 0.37354448 3.093142e-21)
(1.895824 0.4055852 9.0974704e-21)
(1.8848596 0.4391881 -2.9251503e-23)
(1.8766194 0.47100014 -1.9608043e-21)
(1.8687128 0.50737249 0)
(1.8603159 0.52768126 0)
(1.8057622 0.5597294 -3.8519419e-20)
(1.7509427 0.59090955 0)
(1.6919597 0.61882658 0)
(1.5478729 0.57852367 -5.1947032e-21)
(1.6410611 0.61215324 -4.5584482e-20)
(1.4506978 0.55456519 0)
(1.4896936 0.57848203 0)
(1.2612564 0.33978936 -2.5927914e-19)
(1.1097565 0.21384806 -6.3701653e-20)
(1.1912963 0.26790589 -1.3968497e-19)
(1.0122168 0.16270597 0)
(1.2910232 0.37828341 1.709344e-19)
(1.3811913 0.48904728 1.6341505e-19)
(1.3533192 0.45218208 -7.5298705e-20)
(0.89603038 0.11763683 0)
(0.77419865 0.080677072 4.2839931e-20)
(0.63112021 0.049143675 -7.8623491e-20)
(0.039325059 0.010237099 3.1935372e-19)
(0.23830334 0.021544303 1.2345089e-19)
(0.48993199 0.024034932 0)
(1.9870425 0.26869624 0)
(1.9798304 0.29394088 6.4773282e-21)
(1.9667414 0.32173893 0)
(1.95317 0.35085065 5.2279827e-21)
(1.9404402 0.38159132 -5.0611038e-21)
(1.9284296 0.41438903 0)
(1.9166102 0.4479712 2.4979437e-21)
(1.9036481 0.47979659 1.7933233e-21)
(1.9047791 0.50133387 -2.9385857e-21)
(1.8915683 0.55565619 0)
(1.8409015 0.58978157 0)
(1.7876601 0.62683937 2.0104399e-20)
(1.7281995 0.66509153 2.9519016e-20)
(1.5755649 0.62215631 -5.6790999e-20)
(1.6252856 0.63789974 0)
(1.4297443 0.56230336 0)
(1.5116924 0.62137251 0)
(1.2603334 0.32563133 8.2709919e-20)
(1.0790369 0.18392841 0)
(1.1623443 0.23238349 2.062158e-19)
(1.2349863 0.28789587 7.854011e-20)
(0.98175351 0.13626445 -2.0160819e-19)
(1.3155465 0.40198767 1.3906549e-19)
(1.3969294 0.52137641 -6.2829307e-20)
(1.3403266 0.44241635 -1.2753098e-19)
(0.86568671 0.095058689 -1.7873667e-19)
(0.74195875 0.062959937 2.1649679e-19)
(0.60769538 0.033645922 0)
(0.030107864 -0.0063233473 1.7496528e-19)
(0.22713053 0.01544563 1.4109861e-21)
(0.47411957 0.011898076 0)
(1.9905601 0.28084448 -1.3440343e-21)
(1.9836914 0.3099798 -6.6589239e-21)
(1.9725233 0.33900171 0)
(1.9607936 0.36923967 -3.1102284e-22)
(1.949799 0.40101319 0)
(1.9381184 0.43486983 -2.3303586e-21)
(1.9256507 0.46889283 5.0219119e-21)
(1.9336577 0.51462383 8.4695593e-21)
(1.8810112 0.58586491 -1.3327939e-21)
(1.9252055 0.55523054 0)
(1.8328972 0.62174001 1.2528278e-21)
(1.7793813 0.66377157 -1.8446283e-20)
(1.7102127 0.69805434 -2.8365447e-20)
(1.5568367 0.64284563 0)
(1.6531345 0.6868635 0)
(1.4416578 0.59439114 0)
(1.4979645 0.63760535 -5.623178e-20)
(1.288394 0.3469965 2.0160356e-19)
(1.1105371 0.17915645 1.9982182e-20)
(1.1817248 0.22243864 7.8862354e-20)
(1.2446717 0.27368266 -8.5264668e-20)
(1.0364236 0.1317848 8.4318284e-20)
(1.3077997 0.38804352 0)
(1.3773955 0.51896084 0)
(1.3526185 0.46864031 1.4161992e-19)
(0.91948215 0.090548798 1.7376072e-19)
(0.80844483 0.059501316 -1.5673721e-19)
(0.70102131 0.03067221 -1.1981967e-21)
(0.068801284 -0.00096596502 -3.0518013e-22)
(0.33687304 0.005243091 -1.2243728e-19)
(0.57521349 0.0066472703 0)
(1.9993179 0.28282046 -1.2449146e-20)
(2.0004877 0.3137282 0)
(1.9953587 0.34334764 1.449435e-20)
(1.9871439 0.3744131 -1.4699001e-20)
(1.9792181 0.40778815 0)
(1.9710839 0.4428962 0)
(1.9557247 0.47956691 -1.2805251e-20)
(1.9380731 0.53515554 0)
(1.9613781 0.49979077 -6.6765546e-21)
(1.9119297 0.6116569 -1.2207328e-20)
(1.9469924 0.58012987 -1.3383298e-20)
(1.8687028 0.65177239 -1.4306352e-21)
(1.8171537 0.69752228 -4.7671914e-22)
(1.7403946 0.73653886 -1.1202577e-20)
(1.5775004 0.69037394 0)
(1.6279309 0.71397551 0)
(1.4701454 0.623799 4.8736583e-20)
(1.4229393 0.60659352 0)
(1.5153135 0.67773421 0)
(1.288989 0.33028155 -1.89592e-19)
(1.1593956 0.19236344 0)
(1.094209 0.15308368 1.1004501e-19)
(1.2246564 0.23742281 8.4495129e-20)
(1.2756716 0.28914071 8.5572785e-20)
(1.0190775 0.11010396 0)
(1.3220462 0.41048009 1.2667542e-19)
(1.3746351 0.54264676 0)
(1.3372414 0.4556177 -2.7570733e-19)
(0.89038612 0.068926678 -5.1755439e-20)
(0.79150462 0.043076807 1.0084785e-19)
(0.69185376 0.017766505 1.440685e-19)
(1.991219 0.26213731 -2.1956831e-21)
(1.9996297 0.29581435 -1.4139559e-20)
(2.002014 0.32954896 0)
(1.998623 0.36029245 -2.0216733e-22)
(1.9933618 0.39248313 0)
(1.9876908 0.42781728 0)
(1.9777328 0.46291667 1.1941699e-20)
(1.9709586 0.54367608 0)
(1.9876704 0.50869189 0)
(1.9441208 0.60100283 1.0060789e-20)
(1.9072573 0.64110816 7.5496428e-21)
(1.9725593 0.56733565 1.5317038e-20)
(1.8638782 0.68504394 5.6939146e-22)
(1.8127296 0.7279858 -9.6890547e-21)
(1.7852701 0.74437787 2.5904755e-20)
(1.7187416 0.76993487 2.7619974e-20)
(1.5487514 0.70765315 0)
(1.6480015 0.75503711 0)
(1.4649142 0.66042276 1.1132665e-19)
(1.3939078 0.59111267 4.4752628e-20)
(1.4366902 0.65354209 -3.9840482e-20)
(1.4886335 0.68940717 -8.2493022e-20)
(1.3052172 0.34666292 2.741225e-19)
(1.1817276 0.18151853 0)
(1.1505173 0.15048201 0)
(1.2408948 0.22183106 -1.6348523e-19)
(1.2837722 0.27040148 0)
(1.0658155 0.095962127 7.5467374e-20)
(1.3125461 0.39136563 6.6735974e-20)
(1.345405 0.52512599 0)
(1.3348828 0.47728227 0)
(0.93633177 0.060499796 -2.2005812e-20)
(0.88447948 0.037921286 -8.2296268e-20)
(0.78522389 0.0091565195 3.156747e-21)
(1.9657543 0.25675704 2.4986763e-20)
(1.9947502 0.29498302 1.2228008e-20)
(2.0054162 0.3283376 0)
(2.0095283 0.36023088 0)
(2.0099209 0.39252892 -1.3720592e-20)
(2.007213 0.42712987 2.7990118e-20)
(2.0017593 0.46908727 -5.9196497e-21)
(1.9895583 0.53014622 -4.4792468e-21)
(2.0025672 0.49424467 0)
(1.9715021 0.62119341 -1.1179118e-20)
(1.937186 0.66399248 -9.0823777e-21)
(1.9926543 0.57768517 0)
(1.9034253 0.71596755 0)
(1.8529423 0.75690873 -5.4116867e-21)
(1.797463 0.78650115 0)
(1.6906836 0.77254927 -1.6193709e-20)
(1.7474749 0.80282067 -6.3370888e-21)
(1.5558066 0.74215166 -9.4399132e-20)
(1.6193062 0.78015045 -3.0462678e-20)
(1.3753934 0.62701415 4.9389198e-20)
(1.4287817 0.68178011 3.455607e-20)
(1.4889984 0.71899228 1.4400796e-19)
(1.3039144 0.32126279 -3.785975e-19)
(1.2225327 0.18915174 -7.6769718e-20)
(1.161381 0.13668351 -2.543412e-20)
(1.2738422 0.23096578 -8.7506287e-20)
(1.3038661 0.27846086 -1.7048343e-19)
(1.1396875 0.10618155 -7.7846491e-20)
(1.0290565 0.065616449 1.6481915e-20)
(1.3096579 0.41227153 8.5364499e-20)
(1.3332021 0.54925845 0)
(1.3162636 0.45703735 -9.0371246e-20)
(0.88658456 0.025301277 -1.2075949e-19)
(1.9574855 0.26510194 -2.2366071e-20)
(1.9710475 0.28015496 -8.8610168e-21)
(1.994007 0.31137502 -1.4374866e-20)
(2.0055281 0.34235102 0)
(2.0108447 0.37475064 1.4218957e-20)
(2.0123417 0.40795628 9.1222486e-21)
(2.0115231 0.44101115 -2.5549631e-20)
(2.0115676 0.45942835 -2.9004187e-21)
(2.0087106 0.53709638 3.0945626e-20)
(2.0153981 0.49417789 0)
(1.9928614 0.60345897 -4.7056709e-21)
(1.9678958 0.64754875 -9.4891269e-21)
(1.9376336 0.7007477 0)
(2.0069358 0.56205907 -4.3763798e-20)
(1.8936643 0.74853433 1.0334296e-20)
(1.8373365 0.78811644 7.3828733e-21)
(1.7810072 0.80732277 4.3480517e-21)
(1.6902885 0.8191855 -2.7809788e-20)
(1.7281089 0.82912353 -2.1233158e-20)
(1.5875872 0.77142599 1.6732373e-19)
(1.5193982 0.75152859 0)
(1.6349502 0.81800069 2.8897594e-20)
(1.343922 0.60696272 0)
(1.3916937 0.67485231 -1.2306387e-19)
(1.4550061 0.72116736 -1.3772843e-19)
(1.300288 0.34206894 4.1794742e-19)
(1.2426418 0.17230163 0)
(1.2265499 0.14315581 2.8378794e-19)
(1.2893379 0.21113816 1.6528204e-19)
(1.3123364 0.2534026 2.5784147e-19)
(1.1805339 0.089140571 8.9435728e-20)
(1.0764119 0.052015695 6.6064864e-20)
(1.2961916 0.38855964 -1.4949317e-19)
(1.3079982 0.52728682 -1.2648587e-19)
(1.3047482 0.47896047 0)
(0.97033317 0.013142181 0)
(1.8963397 0.24959318 5.0127953e-20)
(1.9329199 0.27606267 0)
(1.9696614 0.30536729 4.1076341e-20)
(1.9930743 0.33734162 4.0494099e-20)
(2.0058726 0.36957802 2.1929998e-20)
(2.0118084 0.401781 -1.0186336e-20)
(2.0159 0.43233311 -1.3973809e-20)
(2.0178197 0.46268708 2.0334019e-20)
(2.016053 0.52706108 -8.9059465e-21)
(2.0162245 0.50879582 8.9286388e-21)
(2.0182602 0.47507094 8.6742707e-21)
(2.006827 0.60578605 1.1468701e-20)
(1.9899017 0.65916634 4.5213759e-20)
(1.9643933 0.71141546 0)
(2.0160653 0.56443642 3.84719e-20)
(1.9200573 0.77871948 -3.7994007e-20)
(1.8565567 0.81677771 0)
(1.797875 0.83749269 0)
(1.6662609 0.8346734 1.6176589e-20)
(1.7456612 0.86928694 6.9111308e-21)
(1.5761793 0.81116159 -4.9662937e-20)
(1.5172983 0.80145554 -2.6603952e-20)
(1.6055471 0.83409042 2.0769904e-20)
(1.3196832 0.62645293 -1.316585e-19)
(1.3824249 0.708129 -8.51065e-20)
(1.4458835 0.75795801 0)
(1.2974173 0.32110019 -1.288718e-19)
(1.2813271 0.17782078 0)
(1.2568426 0.12399436 -3.0261563e-19)
(1.3128406 0.2126291 -9.3716295e-20)
(1.3137184 0.25102242 0)
(1.1619762 0.063110774 -1.6008649e-19)
(1.2431658 0.097872028 0)
(1.0586015 0.025350158 1.2173101e-19)
(1.2852675 0.41323671 1.4856554e-20)
(1.2892506 0.5445683 2.98012e-19)
(1.2889099 0.45877849 -1.9190862e-20)
(1.8415778 0.23026729 -4.4174803e-20)
(1.8807096 0.25400389 -1.3086043e-20)
(1.9276586 0.28385859 -4.626947e-20)
(1.9636585 0.31489591 -4.8020193e-20)
(1.9873171 0.34836058 2.1620714e-20)
(2.0018746 0.38106545 -4.5264068e-20)
(2.0100889 0.41334725 0)
(2.0153888 0.44247498 -1.2648283e-20)
(2.017209 0.53074416 0)
(2.0164607 0.50005686 2.7946877e-20)
(2.0137848 0.46986982 -3.1087042e-20)
(2.0050748 0.62316267 -1.0677347e-20)
(2.0136057 0.58314294 1.9405039e-20)
(2.0014062 0.64745915 -3.0800354e-20)
(1.9815233 0.68967395 0)
(1.9638974 0.73345707 0)
(2.015593 0.54409373 -1.0445989e-20)
(1.9443864 0.77407005 0)
(1.8928273 0.81743323 2.8018392e-20)
(1.8328194 0.84445484 2.7336259e-21)
(1.7813618 0.87037075 0)
(1.6731805 0.8752065 2.8808002e-20)
(1.7156717 0.89443378 -1.0180466e-20)
(1.5498748 0.82377312 2.6912584e-21)
(1.4749877 0.80656161 0)
(1.6051788 0.86911799 -5.0641815e-20)
(1.2861236 0.59349069 1.5028013e-19)
(1.3198661 0.68015557 0)
(1.3535816 0.71153501 1.6457234e-19)
(1.40766 0.75547479 0)
(1.2791996 0.32563472 0)
(1.3038272 0.26973077 -1.4396452e-19)
(1.3045187 0.15706529 0)
(1.2983629 0.13017525 6.9887593e-20)
(1.32973 0.18617815 9.631766e-20)
(1.3285952 0.20723346 0)
(1.2159886 0.047722885 -8.8556919e-20)
(1.2838658 0.080789509 0)
(1.1311745 0.01250198 -2.1973735e-19)
(1.2770909 0.4015411 2.7088923e-19)
(1.2663461 0.51425516 -2.5146246e-19)
(1.2720625 0.4714768 9.236892e-20)
(1.8588182 0.22573405 3.4178145e-20)
(1.7364005 0.21100288 2.478551e-20)
(1.8229438 0.24123744 -3.5133355e-20)
(1.858758 0.26931171 0)
(1.9152268 0.30244165 6.3742292e-21)
(1.9514068 0.33634334 0)
(1.9752112 0.36968815 3.0684883e-20)
(1.9883326 0.40250636 0)
(2.0051344 0.43673969 -4.4861044e-21)
(2.0142795 0.51123783 3.2426743e-20)
(2.0100205 0.48166061 -2.3538081e-20)
(1.99897 0.44795082 2.0999425e-20)
(2.0050015 0.61527348 -3.6271681e-20)
(2.0077159 0.57361848 -1.4608165e-20)
(1.9987423 0.65591869 6.7246585e-20)
(1.9902358 0.69200721 -3.0508452e-20)
(1.9547515 0.75416747 0)
(1.9815538 0.71214224 -1.6339533e-20)
(2.0075088 0.53827519 4.9314229e-20)
(1.9448379 0.79550564 0)
(1.9017725 0.8469661 -1.572441e-20)
(1.8435449 0.87607085 3.4785315e-20)
(1.805114 0.89903058 0)
(1.6383143 0.89377993 -1.8396271e-20)
(1.7242822 0.93345758 8.0301252e-21)
(1.5614563 0.87296203 9.496549e-20)
(1.4626159 0.84560564 -5.9824529e-20)
(1.2542263 0.60793858 -1.9509411e-19)
(1.2776015 0.69739125 -2.0164464e-19)
(1.3426369 0.77670149 -1.8074837e-20)
(1.3865283 0.79239146 -9.3145038e-20)
(1.2648072 0.36432695 1.1709393e-20)
(1.2823618 0.29239005 0)
(1.3033549 0.25504451 1.9596636e-19)
(1.3310922 0.15956964 -9.2805665e-20)
(1.3282625 0.1106572 0)
(1.3379428 0.18359115 2.2992653e-19)
(1.3285084 0.19978848 0)
(1.2028783 0.023852916 7.9595566e-20)
(1.2746668 0.057019149 3.0093074e-19)
(1.325286 0.087322509 0)
(1.2592648 0.44371881 -1.9721204e-19)
(1.2372601 0.52415586 0)
(1.6388848 0.18491603 0)
(1.7263579 0.21267837 -6.231694e-20)
(1.8055089 0.24686317 2.5733455e-20)
(1.8472888 0.27369164 0)
(1.9034282 0.31040696 7.8955314e-21)
(1.9400433 0.34402544 -3.1333475e-20)
(1.9631358 0.37714202 0)
(1.9806452 0.41108444 0)
(2.0026278 0.50504739 -3.0242513e-20)
(1.9917994 0.47202999 3.0643695e-20)
(1.9687205 0.43591701 -4.9941257e-20)
(2.0002882 0.60160266 0)
(1.998143 0.63498027 9.7650988e-22)
(1.9994003 0.58242915 0)
(2.00055 0.5497154 -8.6192617e-20)
(1.9929767 0.67388694 -6.7842076e-22)
(1.966299 0.75667408 -7.4501058e-20)
(1.9800682 0.71679347 1.4827085e-20)
(1.9954689 0.51573417 0)
(1.9329855 0.81789276 0)
(1.9557578 0.77606886 3.9943244e-20)
(1.9172616 0.84052215 0)
(1.8699269 0.88115971 -9.7631981e-21)
(1.7994858 0.93695848 1.1112897e-20)
(1.6422822 0.92928142 -2.5833378e-20)
(1.7592623 0.95986517 -1.1181382e-20)
(1.6816411 0.95491469 0)
(1.5438886 0.89659248 0)
(1.4061454 0.84180101 0)
(1.491095 0.89474578 3.5174213e-20)
(1.2258478 0.57153298 2.0024937e-19)
(1.2453073 0.65853137 2.0059583e-19)
(1.2673604 0.74952986 0)
(1.3060857 0.78765812 1.1413178e-20)
(1.2374461 0.37077215 -1.5718207e-19)
(1.2627851 0.27466034 -1.9954152e-19)
(1.3117158 0.22244552 -2.5762678e-19)
(1.3531244 0.13610836 -1.4522887e-19)
(1.356003 0.11388686 4.3857036e-20)
(1.353682 0.15470247 -2.4369639e-19)
(1.3427128 0.16646949 0)
(1.2586103 0.011153769 -8.8835766e-20)
(1.3195668 0.0428476 -9.7130122e-20)
(1.360842 0.070832675 0)
(1.233284 0.4463312 1.7708402e-19)
(1.2158144 0.48980849 0)
(1.4646588 0.15738276 -4.6773488e-20)
(1.6424332 0.2052771 4.7259038e-20)
(1.6964203 0.22257425 2.3268636e-20)
(1.7567963 0.25547724 -3.4874313e-20)
(1.8252532 0.28988851 -4.4991343e-20)
(1.8742026 0.32354939 4.0881307e-20)
(1.9053382 0.35508922 -4.39657e-20)
(1.9428265 0.39823769 0)
(1.9843077 0.48250662 0)
(1.961909 0.44538099 2.7217598e-20)
(1.9357576 0.40861005 7.0265565e-21)
(1.9802243 0.59465053 2.7097497e-20)
(1.9857198 0.63027068 2.1918049e-20)
(1.9774211 0.5644712 0)
(1.9757265 0.5350008 1.0534615e-19)
(1.984066 0.67366521 0)
(1.9695169 0.73845019 2.345564e-20)
(1.9742438 0.69043111 0)
(1.9673804 0.50227137 0)
(1.9330465 0.79889913 0)
(1.9489366 0.77800823 0)
(1.8977482 0.86539831 0)
(1.8656239 0.91238597 3.2321513e-20)
(1.8268896 0.94326865 0)
(1.6134124 0.9570589 -7.138349e-21)
(1.746072 1.0001241 -2.802159e-21)
(1.6774432 0.99224089 6.9257071e-21)
(1.5713744 0.94914811 2.2660332e-20)
(1.3834247 0.88483483 4.1603369e-20)
(1.4636463 0.94117029 -4.7444958e-20)
(1.1894056 0.57964705 2.5195953e-19)
(1.2053841 0.66994813 -2.6471943e-19)
(1.226222 0.76200985 0)
(1.3023095 0.83935116 0)
(1.2211186 0.41472878 1.2798288e-20)
(1.221868 0.33522284 -1.3802873e-19)
(1.2307887 0.29572986 1.9986537e-19)
(1.2770393 0.22508973 3.2600589e-19)
(1.3033065 0.20624443 -1.0440473e-19)
(1.3626283 0.13377089 -1.1714348e-19)
(1.3824547 0.094187702 1.1077327e-20)
(1.3574063 0.14816239 0)
(1.3393338 0.15332521 0)
(1.3136906 0.021455283 -1.0238699e-19)
(1.3606798 0.05025543 1.2030415e-19)
(1.3870634 0.075080544 -9.7877126e-21)
(1.1800771 0.4937253 0)
(1.4150922 0.15503183 6.6135682e-20)
(1.5193641 0.17925636 0)
(1.6539074 0.21969093 -4.5511013e-20)
(1.6752941 0.22877783 0)
(1.7476394 0.26137588 7.7175554e-20)
(1.8090983 0.29422286 -5.3205553e-21)
(1.8550788 0.32766051 -4.7587697e-20)
(1.883392 0.35695827 6.4472581e-20)
(1.9000219 0.37455606 -7.5344867e-21)
(1.9505973 0.46837058 -4.0254035e-20)
(1.9203855 0.43164636 0)
(1.8762631 0.38697196 -8.4064472e-21)
(1.9714959 0.60438503 -2.3928034e-20)
(1.9633039 0.57012986 -1.7881969e-21)
(1.9745663 0.64552952 -3.9742015e-20)
(1.9624299 0.54173605 -7.1211058e-20)
(1.9546033 0.50964716 -2.1797811e-20)
(1.9565739 0.73714615 1.05685e-20)
(1.9498242 0.68579713 0)
(1.9399941 0.47633819 1.9532985e-20)
(1.9174583 0.79776426 -7.6999912e-20)
(1.9437366 0.75753314 0)
(1.8830624 0.83552918 0)
(1.8703035 0.8972785 -3.3049715e-20)
(1.8112918 0.97018321 3.5841015e-20)
(1.630281 1.0015612 -2.7094777e-20)
(1.7623775 1.0121044 0)
(1.7009855 1.0177693 -3.0230959e-21)
(1.5392796 0.99511886 1.2715492e-19)
(1.412669 0.93645013 3.9223392e-20)
(1.3358033 0.88487328 0)
(1.4887007 0.99059523 -8.7892938e-20)
(1.1617499 0.53828328 -4.7247711e-19)
(1.1742176 0.62881446 4.0469378e-19)
(1.1911753 0.72191616 -7.3955557e-20)
(1.2136277 0.81573659 0)
(1.2514942 0.85590622 -1.4466324e-19)
(1.1878711 0.40889967 0)
(1.183885 0.36528991 0)
(1.2061055 0.26576001 4.340815e-21)
(1.2590278 0.20397666 5.5030867e-21)
(1.3174498 0.16934367 9.942128e-20)
(1.380709 0.11083517 2.44886e-19)
(1.3901391 0.093540662 -2.2725653e-19)
(1.374606 0.120895 -1.5223189e-19)
(1.3553504 0.12230841 0)
(1.3588299 0.0098034464 1.921372e-19)
(1.3979249 0.036503671 -3.3396742e-19)
(1.4171596 0.057067005 0)
(1.161278 0.45276053 0)
(1.2153122 0.12743339 -5.4463083e-20)
(1.4396509 0.17100159 -2.2289752e-20)
(1.5200731 0.19162059 2.7390704e-20)
(1.5551885 0.20491635 0)
(1.6200353 0.23312433 4.4382596e-20)
(1.705538 0.26740812 -4.436433e-20)
(1.7624396 0.30025087 5.8518174e-20)
(1.7967669 0.32708541 0)
(1.8361352 0.35552606 -4.1921358e-20)
(1.9162017 0.44246346 0)
(1.8771314 0.40711849 1.4629424e-21)
(1.826236 0.36009318 0)
(1.8599731 0.38943829 -1.4417812e-21)
(1.9361695 0.58846241 8.5661791e-20)
(1.9271968 0.55317049 1.1626154e-19)
(1.9413428 0.62750366 0)
(1.9177358 0.51981766 8.2722585e-20)
(1.9054481 0.48744277 0)
(1.938199 0.70784231 -2.9779047e-21)
(1.924442 0.65611413 4.2901804e-20)
(1.8861663 0.45457501 2.3749983e-20)
(1.9054635 0.77011191 3.9555879e-20)
(1.8956886 0.81266815 4.6562489e-20)
(1.9193431 0.7531266 0)
(1.8363451 0.82949518 0)
(1.8386041 0.90955003 0)
(1.8078164 0.94251588 -5.8847053e-20)
(1.7748968 0.99735855 0)
(1.6116342 1.0349962 -1.0555403e-20)
(1.7096091 1.0476808 3.3367928e-20)
(1.675542 1.054502 8.4962235e-21)
(1.5624523 1.0393444 -4.3784342e-20)
(1.3872308 0.9821982 -1.2718048e-19)
(1.3170539 0.93327276 -4.7670793e-20)
(1.4611836 1.0358629 2.1564919e-20)
(1.1210219 0.54817887 4.7875614e-19)
(1.1287752 0.63808611 -7.9309812e-20)
(1.1447231 0.73309799 2.6207533e-19)
(1.1642869 0.82910677 1.7610685e-19)
(1.2382858 0.91072146 2.539495e-19)
(1.1529165 0.35194423 -1.010627e-19)
(1.1703335 0.27303367 1.0856373e-19)
(1.226601 0.21461082 -7.0788381e-20)
(1.276063 0.16205431 2.5156713e-19)
(1.3052875 0.15009264 -2.1686849e-19)
(1.3869032 0.1059906 1.4417792e-19)
(1.4085439 0.076477479 2.8245111e-19)
(1.3742688 0.10947408 1.632756e-19)
(1.3470772 0.1041198 0)
(1.397287 0.017866607 0)
(1.423108 0.039791288 3.3567578e-19)
(1.4193874 0.060414612 -1.3587891e-20)
(1.1122615 0.44125468 0)