/*--------------------------------*- C++ -*----------------------------------*\
| =========                 |                                                 |
| \\      /  F ield         | OpenFOAM: The Open Source CFD Toolbox           |
|  \\    /   O peration     | Version:  2112                                  |
|   \\  /    A nd           | Website:  www.openfoam.com                      |
|    \\/     M anipulation  |                                                 |
\*---------------------------------------------------------------------------*/
FoamFile
{
    version     2.0;
    format      ascii;
    arch        "LSB;label=32;scalar=64";
    class       surfaceScalarField;
    location    "3";
    object      phi;
}
// * * * * * * * * * * * * * * * * * * * * * * * * * * * * * * * * * * * * * //

dimensions      [0 3 -1 0 0 0 0];

oriented        oriented;

internalField   nonuniform List<scalar> 
23855
(
-9.2893974e-05
-2.2490882e-06
-9.0644885e-05
-0.00030858886
0.00030633977
-9.0644885e-05
-3.3158173e-05
-0.00027543069
-4.2631498e-05
-3.503325e-06
-8.714156e-05
0.00041465413
-0.0004478123
-0.00027893401
-0.0005448474
-8.714156e-05
-0.00013019327
-3.9385553e-05
-0.00040842675
-1.0624856e-05
-0.00026830915
2.1513866e-06
-8.9292947e-05
-0.00054627593
0.00041608265
0.00047702357
-0.00051640912
-0.00041905161
-0.00026615777
-8.9292947e-05
-6.9252357e-05
-0.00021281846
-0.00052297916
6.5700421e-06
-4.1821964e-06
-0.00041486941
3.2257901e-06
-0.00026938356
5.6812498e-06
-9.4974196e-05
-0.00046257128
0.00039331892
-0.00060592979
0.00039311133
-0.00052716136
0.00065191109
-0.00064534105
-0.00041164362
-0.00026370231
-9.4974196e-05
0.00018933981
-0.00021261087
-0.0003339274
9.999851e-06
-0.00053716121
-0.00064083554
-4.505512e-06
1.032814e-05
-0.00042197176
1.1246655e-05
-0.00027494896
7.5960444e-06
-0.00010257024
0.00055523455
-0.00036589474
0.00034262368
-0.00071077415
0.00037684675
-0.00063083569
-0.00052683307
-0.00073285915
0.00072835364
-0.0004107251
-0.00026735292
-0.00010257024
-0.00070144622
0.00033555148
-0.00036815047
-0.00046036633
2.4555686e-05
-0.00065539137
2.3799813e-05
-0.00055063288
-0.00077287997
4.0020814e-05
2.6907424e-05
2.0484421e-05
-0.00043120953
1.6216196e-05
-0.00028356911
8.3372001e-06
-0.00011090744
0.00074018918
-0.0004046377
0.00037203871
-0.00085784645
0.00039748011
-0.00074832428
-0.00063159156
-0.00053014846
0.0010251122
-0.00098509141
0.00074514983
-0.0007182424
-0.00041499333
-0.00027523191
-0.00011090744
0.00034051213
-0.00048580774
-0.00056769505
2.3922226e-05
-0.00077224651
4.0132035e-05
-0.00067172359
3.5637735e-05
-0.0005657862
0.00030686982
-0.00085965087
-0.00012544054
2.7637473e-05
-0.0004426308
1.898019e-05
-0.0002942121
8.1745349e-06
-0.00011908197
0.0009314868
-0.00059097467
0.00044567907
-0.0010123243
0.00044462925
-0.00083572865
-0.00073211447
-0.00063608586
-0.00053814872
0.0012113562
-0.0009044864
0.00071154722
-0.00083698776
-0.00042365061
-0.00028603757
-0.00011908197
0.00062038155
-0.00056664524
-0.00065581393
-0.00088905686
5.3328212e-05
6.3995433e-05
-0.00079610991
5.7543989e-05
-0.00069362985
4.482029e-05
-0.00058296901
-0.0013070506
0.00040256422
-0.00059550339
-0.00094366967
0.00010668191
3.1979473e-05
-0.00045563009
1.9751242e-05
-0.00030578881
7.2558192e-06
-0.00012633779
0.0010924837
-0.00047210213
0.00052583844
-0.0011466704
0.00049085648
-0.00082506143
-0.00089034146
-0.00073856592
-0.00064880956
-0.00055098954
0.0012769864
-0.00087442219
-0.0010165364
0.00042103298
-0.00090985446
-0.00043587884
-0.00029853299
-0.00012633779
-0.0010715686
0.00059946647
-0.00062083197
-0.00073908925
-0.00093009146
0.00010503004
-0.0010260151
0.00013567365
8.8223254e-05
-0.00082678917
6.9093013e-05
-0.00071790257
4.9949287e-05
-0.00060093883
0.00020541781
-0.0013248122
0.00045038999
-0.0009037792
-0.0011446133
0.00023475886
3.3213724e-05
-0.00046909257
1.8527973e-05
-0.00031706096
5.6625375e-06
-0.00013200033
0.0011627851
-0.00056331868
0.00054195317
-0.0012617556
0.00052266639
-0.00084186821
-0.00092098507
-0.0010089397
-0.00075769616
-0.00066795328
-0.00056772511
0.0010601097
-0.00085469186
0.0013427683
-0.00089237832
-0.0014734115
0.00056963228
-0.0012386526
-0.0004505646
-0.00031139843
-0.00013200033
0.00049679098
-0.00071980247
-0.00080372693
-0.00096994168
0.00012807347
-0.001073384
0.00015239895
-0.0011661956
0.00015725593
0.00010101366
-0.00085870982
7.4041942e-05
-0.00074199523
5.0395035e-05
-0.00061812014
0.00048807646
-0.0014849057
0.00059252735
-0.00091527339
-0.0012295175
-9.1350924e-06
3.1074457e-05
-0.00048163905
1.5354522e-05
-0.00032675295
3.4939172e-06
-0.00013549425
0.0012802339
-0.00078344294
0.00056043145
-0.001365111
0.00056138409
-0.00086892802
-0.00094531056
-0.0010137966
-0.0010722616
-0.00078466787
-0.00069160019
-0.00058704568
0.0013564805
-0.00086840405
0.0014664737
-0.00087394635
-0.001632569
0.00071729556
0.0010024144
-0.0010115495
-0.00046628453
-0.00032325903
-0.00013549425
0.00057303756
-0.00080467957
-0.00081654664
-0.0010080339
0.00013910587
-0.001115269
0.0001699584
-0.001201514
0.00018771733
-0.0012514156
0.00017915399
0.00010455036
-0.00088921823
7.2478336e-05
-0.00076407853
4.5867259e-05
-0.00063291294
0.00059806966
-0.0015421069
0.00066816054
-0.00063015453
-0.00082481133
-0.0012321097
0.00022056016
2.5528607e-05
-0.00049181314
1.039408e-05
-0.00033365311
8.8791864e-07
-0.00013638217
0.0014429484
-0.00086991083
0.00063826882
-0.0014480366
0.00063148992
-0.00090348353
-0.00097616309
-0.0010315556
-0.0010636983
-0.0010529557
-0.00081673989
-0.00071821127
-0.00060738433
0.001494004
-0.00089593433
0.0014900839
-0.0008219234
-0.001200229
0.00057007446
-0.0016445334
0.00081972203
-0.00097966883
-0.00048141906
-0.00033276519
-0.00013638217
0.00062409315
-0.00080976774
-0.00075726608
-0.0010362294
0.00013274591
-0.0011421741
0.00016601103
-0.0012248618
0.00019330621
-0.0012788715
0.00021517326
-0.0012991678
0.00024621206
9.7013533e-05
-0.00091375343
6.3588236e-05
-0.0007817995
3.6536079e-05
-0.00064392041
0.00059414961
-0.0014484587
0.00062653531
-0.0010744589
-0.00062873668
-0.0012994395
0.00031977068
1.6831e-05
-0.00049825006
3.9469873e-06
-0.00033671218
-2.0625091e-06
-0.00013431966
0.0016625401
-0.001038447
0.00085277239
-0.0014046017
0.00064733561
-0.00093921591
-0.0010094282
-0.0010588508
-0.0010855653
-0.0010839945
-0.0010532275
-0.00085016519
-0.00074526343
-0.00062708941
0.0014931782
-0.00089902857
0.001414716
-0.00078818071
-0.0013646166
0.00029015773
0.00061624012
-0.0012449768
-0.0010448459
-0.00049430307
-0.00033877469
-0.00013431966
0.0004547312
-0.0005518293
-0.00072313494
-0.0010409393
0.00010172339
-0.0011403643
0.00013093609
-0.001219831
0.00016098029
-0.0012772349
0.00019166961
-0.0013091432
0.00022514873
-0.001317173
0.00026394556
7.3256542e-05
-0.00092342173
4.5894223e-05
-0.00079115765
2.2350416e-05
-0.00064943983
0.00051568745
-0.0012908876
0.00050270689
0.0013418405
-0.0010516828
-0.00067464748
9.6863711e-05
-0.0013229066
0.00027806067
5.680299e-06
-0.00049998337
-3.4829355e-06
-0.00033529175
-5.0948762e-06
-0.00012922478
0.001414639
-0.00095990778
-0.0012121149
0.00066028561
-0.0012690773
0.00054594238
-0.00096768276
-0.0010386409
-0.001088895
-0.0011162546
-0.0011174736
-0.0010920243
-0.001058961
-0.00087752751
-0.00076880723
-0.00064375953
0.0013835167
-0.00086782928
0.0013211383
-0.00081843143
-0.0012984198
0.00024673704
-0.001037691
0.0003630435
-0.00094082727
-0.0010203592
-0.00050346631
-0.00034038663
-0.00012922478
0.00020252406
0.00042360895
-0.00060879171
-0.00076115322
-0.0010160255
4.8342793e-05
-0.0011092888
7.0647927e-05
-0.0011892146
0.00010031966
-0.0012517466
0.00013549198
-0.0012909539
0.00017348033
-0.0013050388
0.00021301454
-0.0013017892
0.0002428282
3.1589254e-05
-0.00090911676
1.7095688e-05
-0.00078590292
3.3160764e-06
-0.00064707561
0.00045330905
-0.0011989244
0.00038049295
0.0012026645
-0.00095592743
-0.00083588088
0.0002618372
-0.0012710569
0.00025069779
-7.0622707e-06
-0.00049640403
-1.1197376e-05
-0.00032918925
-7.8867222e-06
-0.00012133806
0.0010603046
-0.00085778049
0.0012728419
-0.00084923297
0.00045151284
-0.00120644
0.00044528673
-0.00098443629
-0.001060946
-0.0011185667
-0.001151427
-0.001155462
-0.0011315585
-0.0010887747
-0.0010282287
-0.00089202108
-0.00078258684
-0.00065413788
0.0013123198
-0.00085901079
0.0012379529
-0.00085745997
-0.001207479
0.00025155154
-0.0011369682
0.00030108735
-0.00087513104
-0.00095678118
-0.00050760141
-0.00033707598
-0.00012133806
0.00041506143
0.00046308686
-0.00075492711
-0.00076759106
-0.00096770557
-1.6730721e-05
-0.0010589299
-2.0161529e-06
-0.0011427157
2.414903e-05
-0.001212226
6.0799059e-05
-0.0012588949
0.00010343298
-0.001278168
0.00014660949
-0.0012747587
0.00018598401
-0.0012410011
0.00021277238
-2.1490746e-05
-0.00087053033
-2.1161337e-05
-0.00076142551
-2.0609228e-05
-0.00063352865
0.00037894213
-0.0011259842
0.00026852418
0.0011300691
-0.00087851758
-0.0008248968
0.00025493807
-0.0011807729
0.00022399175
-2.0871601e-05
-0.00048672981
-1.8324812e-05
-0.00031875116
-1.0103974e-05
-0.00011123408
0.0011856265
-0.00077056502
0.001255995
-0.00079290814
0.00043069935
-0.0011432779
0.00037568686
-0.00098919632
-0.0010756606
-0.0011447319
-0.001188077
-0.0011980959
-0.001174735
-0.0011281492
-0.0010550171
-0.00096800055
-0.00089169167
-0.00078203473
-0.00065440025
0.0013531238
-0.00097418165
0.001089656
-0.00082113185
-0.0011028086
0.00022429107
-0.00106105
0.00023615321
-0.00080611193
-0.00087881689
-0.00050505462
-0.00032885514
-0.00011123408
0.00048542998
0.00056021564
-0.00071257857
-0.00071156761
-0.00090691839
-8.2277935e-05
-0.00099893174
-7.6728866e-05
-0.0010870527
-5.7679192e-05
-0.0011630115
-2.50655e-05
-0.0012168247
1.8728844e-05
-0.0012420101
6.7275078e-05
-0.001243374
0.00011522473
-0.0012087305
0.00015371338
-0.0011452757
0.00017727512
-7.5959548e-05
-0.00081573212
-6.1501207e-05
-0.00072053353
-4.6346278e-05
-0.00060805397
0.00011547438
-0.00099109424
0.0001699624
0.0010174384
-0.00079314731
-0.00075494104
0.00021132645
-0.0010649223
0.00018610537
-3.4568029e-05
-0.00047048659
-2.4240057e-05
-0.00030461508
-1.1390681e-05
-9.9843403e-05
0.0011171774
-0.00063174747
0.0012404034
-0.00068018774
0.00040459888
-0.00099976873
0.00028820112
-0.00098287793
-0.0010812097
-0.0011637815
-0.0012206907
-0.0012418902
-0.0012232812
-0.0011760989
-0.0010935058
-0.00099156228
-0.00088764715
-0.00087723332
-0.00076687981
-0.000642622
0.00093611636
-0.00082064199
0.00089614019
-0.00072617779
-0.00097463283
0.00018148552
-0.00093066871
0.00017572768
-0.00071934227
-0.00078852745
-0.00049472665
-0.00031600576
-9.9843403e-05
0.00060865591
-0.00099641597
0.00031622823
-0.00059516986
-0.00064917031
-0.00084374651
-0.00013913142
-0.00093767529
-0.00014353439
-0.0010293604
-0.00013442113
-0.0011102494
-0.00011044127
-0.0011701054
-7.1784859e-05
-0.0012001345
-2.3146759e-05
-0.0012066942
3.0595299e-05
-0.0011733792
7.9873395e-05
-0.0011071524
0.00011559013
-0.0010238342
0.00013618706
-0.00012237621
-0.00075485712
-9.6897956e-05
-0.00066998185
-6.9228586e-05
-0.00057339342
-6.0299605e-05
7.5498204e-05
-0.00084425996
0.00011808217
0.00088126451
-0.00069977899
-0.00066853229
0.00016192224
-0.00093107032
0.00014254286
-4.6145567e-05
-0.00044858108
-2.8265381e-05
-0.00028774038
-1.163654e-05
-8.8206863e-05
0.0008402149
-0.00023155899
-0.00060272245
0.00091895068
0.00024504504
-0.00081751306
0.00016834275
-0.00096612272
-0.0010768067
-0.0011728948
-0.0012446705
-0.0012805466
-0.0012719193
-0.0012298409
-0.0011427839
-0.001027279
-0.00090824408
-0.00079488326
-0.00085175507
-0.00073921044
-0.00061953898
0.00066732328
-0.00072762288
0.00076357167
-0.00068807346
0.00075229452
-0.00063421235
-0.00083540964
0.00013563065
-0.00079433264
0.00012580036
-0.00063241041
-0.00069286677
-0.00047684646
-0.00029937692
-8.8206863e-05
-0.00086841312
0.00063685414
6.4600825e-05
5.0537557e-05
-0.00057246802
-0.00060107621
-0.0007859292
-0.00018019351
-0.00088215506
-0.00019465165
-0.00097619079
-0.00019670401
-0.0010595331
-0.00018513743
-0.0011237234
-0.00015682321
-0.0011575181
-0.00011440125
-0.0011681424
-6.1698498e-05
-0.0011364224
-6.3614808e-06
-0.0010684941
4.1215097e-05
-0.00098323565
7.499157e-05
-0.00088909143
9.4208171e-05
-0.00015456449
-0.00069719058
-0.00012092947
-0.00061828096
-8.47215e-05
-0.00053481748
3.5948783e-05
6.4221063e-05
-0.00071486282
8.0650465e-05
0.0007475464
-0.00061191575
-0.00058906246
0.000115136
-0.00079300959
0.00010014282
-5.3416123e-05
-0.00042343034
-2.9647406e-05
-0.00026972952
-1.0663931e-05
-7.7542932e-05
6.4386113e-05
-0.00059957767
0.0006641785
-0.00062395378
0.00067449134
-0.00068906199
8.7985782e-05
-0.00094049369
-0.0010623486
-0.0011708424
-0.0012562371
-0.0013088608
-0.0013143413
-0.0012825437
-0.0011981209
-0.0010748556
-0.00094202055
-0.00081409986
-0.00069880142
-0.00081812006
-0.00070300246
-0.00058823361
0.00063635363
-0.00060040485
0.00063839318
-0.00057417212
0.00062021854
-0.00053956808
-0.00070494754
9.3031782e-05
-0.00067177704
8.2714579e-05
-0.00055664104
-0.00060480472
-0.00045307775
-0.00028039345
-7.7542932e-05
-0.00062467588
3.6775959e-05
4.0224712e-05
4.9815464e-05
0.00061087549
-0.00052288971
-0.00073865544
-0.00020183825
-0.00083641262
-0.00022593596
-0.00093188804
-0.0002389544
-0.0010161743
-0.00024006277
-0.0010819703
-0.0002268905
-0.0011191055
-0.00019523585
-0.0011316009
-0.0001509428
-0.0011028661
-9.5254817e-05
-0.0010346094
-4.0246183e-05
-0.00094759628
5.5757242e-06
-0.00085244241
3.8342553e-05
-0.00075645112
5.7649698e-05
-0.00016897082
-0.00064914923
-0.00013033832
-0.00057266414
-9.0093165e-05
-0.00049814044
3.7988334e-05
4.6046425e-05
-0.00058983537
5.026729e-05
0.0006304174
-0.00053738561
-0.00050712079
7.3776357e-05
-0.00066848002
6.3675296e-05
-5.4679874e-05
-0.00039839787
-2.7806744e-05
-0.0002525867
-8.446853e-06
-6.9096079e-05
0.00051133358
-0.00047455762
-0.00048684544
0.00052707015
0.00055101712
-0.00050120165
1.8330491e-05
2.8127413e-05
-0.00090762627
-0.0010382509
-0.001157824
-0.0012551287
-0.0013220331
-0.001345996
-0.0013268367
-0.0012538089
-0.0011298642
-0.00098784246
-0.00084686669
-0.00071810856
-0.00061083032
-0.00077948755
-0.00066275731
-0.00055282031
0.00049920395
-0.00046121561
0.0004875514
-0.00044150498
0.00046939277
-0.00041912548
-0.00059428857
5.6902951e-05
-0.00055545372
4.8332932e-05
-0.00048167737
-0.00053061327
-0.00042620461
-0.00026103356
-6.9096079e-05
2.4488139e-05
2.4646329e-05
2.5868497e-05
-0.00038313873
0.0003833757
-0.00035524829
-0.00070556635
-0.00020205991
-0.00080389751
-0.00023435336
-0.00089929958
-0.00025852442
-0.00098363795
-0.0002714908
-0.0010491641
-0.00027286898
-0.0010887881
-0.00025720785
-0.0011020744
-0.00022476232
-0.001079336
-0.00017447282
-0.0010119294
-0.00011793483
-0.00092320132
-6.4641143e-05
-0.00082612802
-2.0738666e-05
-0.00072920827
1.1099707e-05
-0.00064064481
2.9814491e-05
-0.00016468063
-0.00061480692
-0.00012446532
-0.00053829199
-8.455198e-05
-0.00046826833
2.6335788e-05
2.7887796e-05
-0.00044633858
2.7213101e-05
0.00052243025
-0.0004655273
-0.00039800565
4.0752883e-05
-0.0005656409
3.5027626e-05
-4.9248357e-05
-0.00037695626
-2.2620797e-05
-0.00023841276
-5.1445005e-06
-6.3951579e-05
-0.00032491059
0.00034939873
0.00033552015
-0.00031087382
0.00036524772
-0.00033937922
2.3697054e-07
9.9994261e-06
-0.00087024698
-0.0010059574
-0.0011336529
-0.0012421624
-0.0013206549
-0.0013616571
-0.0013592823
-0.0013040984
-0.0011864022
-0.0010411361
-0.00089076917
-0.00074994694
-0.0006295451
-0.0005358264
-0.00073927224
-0.00062284397
-0.00051751669
0.00032203664
-0.00029570085
0.00030703096
-0.00027914316
0.00028995054
-0.00026273744
-0.00049436624
2.8838939e-05
-0.00042176069
2.3755041e-05
-0.00038100781
-0.00045933861
-0.00039957705
-0.00024355726
-6.3951579e-05
1.0609557e-05
1.0019509e-05
1.116282e-05
0.00015065336
-0.00015041639
0.00015041639
-0.00014041697
-0.00068708624
-0.00018316074
-0.00078617421
-0.00021978321
-0.00088092449
-0.00025272846
-0.00096396817
-0.0002781942
-0.0010292325
-0.00029142244
-0.0010698905
-0.00029176662
-0.0010831725
-0.00027610979
-0.0010675358
-0.00023656259
-0.0010031048
-0.00018329738
-0.00091343113
-0.00012770501
-0.00081373247
-7.7036699e-05
-0.00071456015
-3.5386792e-05
-0.00062386755
-5.6775503e-06
-0.00054640787
1.0581469e-05
-0.00014463409
-0.00059463815
-0.00010571629
-0.00051712768
-6.9100917e-05
-0.00044841577
1.1330107e-05
1.0807378e-05
-0.0002720412
9.3037577e-06
0.00039882573
-0.00036998679
-0.00024828615
1.7817915e-05
-0.00047350402
1.4165409e-05
-3.7682889e-05
-0.00036189417
-1.4486961e-05
-0.0002290703
-1.0469805e-06
-6.2904598e-05
0.00013039746
-0.0001197879
0.00014041697
-0.00013039746
0.0001197879
-0.00010862508
-0.00083172033
-0.00096933495
-0.0011007077
-0.0012166966
-0.0013074267
-0.0013613129
-0.0013749391
-0.0013436456
-0.0012396674
-0.0010967285
-0.00094143748
-0.00079159685
-0.00065925434
-0.00055208542
-0.00046292255
-0.00070035444
-0.0005862286
-0.00048609866
0.00010862508
-9.7294975e-05
9.7294975e-05
-8.6487597e-05
8.6487597e-05
-7.7183839e-05
-0.00038002148
1.003469e-05
-0.00025514078
6.8546298e-06
-0.00023732287
-0.00036585607
-0.00037638113
-0.00023011728
-6.2904598e-05
-0.00068180458
-0.00014991575
-0.00078222448
-0.00018711047
-0.00087704365
-0.00022366404
-0.00095816638
-0.00025853025
-0.0010209994
-0.00028642729
-0.0010619955
-0.00029931738
-0.0010756242
-0.00029931487
-0.0010659145
-0.00027773106
-0.0010077827
-0.00023188474
-0.00091872787
-0.00017800065
-0.00081639501
-0.00012504247
-0.00071414915
-7.7447699e-05
-0.00061976743
-3.9486917e-05
-0.00053789814
-1.4187283e-05
-0.00046119439
-1.7281567e-06
-0.00011263022
-0.00058772421
-7.7185287e-05
-0.00050904331
-4.6229618e-05
-0.00043986905
-7.7183839e-05
0.00024100467
-0.00023096998
-7.0329209e-05
3.6817967e-06
-0.0003670153
1.1592271e-06
-2.143143e-05
-0.0003549497
-4.1759665e-06
-0.00022594131
3.5992167e-06
-6.6503815e-05
-0.0007944348
-0.00093214023
-0.0010641541
-0.0011818304
-0.0012795296
-0.0013484228
-0.0013749416
-0.0013652294
-0.0012855137
-0.0011506126
-0.00099439566
-0.00083919161
-0.00069721512
-0.00057738506
-0.00047538168
-0.00036874345
-0.0006649095
-0.00055527293
-0.00046130048
-0.00023107189
1.0191889e-07
-7.0329209e-05
-6.6647413e-05
-0.00022991267
-0.00035912566
-0.0002223421
-6.6503815e-05
-0.00068975453
-0.00010468027
-0.00079155374
-0.00014058649
-0.00088785736
-0.00017629677
-0.00096910497
-0.00021272545
-0.0010292208
-0.00025030883
-0.0010658715
-0.00028255128
-0.0010772828
-0.00029765878
-0.001070855
-0.00029437436
-0.0010240308
-0.00026148296
-0.00093874161
-0.000211871
-0.0008339172
-0.00016047846
-0.00072786711
-0.0001113245
-0.00062850645
-6.8708676e-05
-0.00054064297
-3.6742091e-05
-0.00045821953
-1.7162147e-05
-0.00036081235
-7.9311038e-06
-7.0297114e-05
-0.00059461239
-4.0795682e-05
-0.00051447725
-1.8144999e-05
-0.00044315548
6.6647413e-05
-6.6545494e-05
-0.00022618955
-3.7231183e-06
-2.2116698e-06
-0.00035691399
7.1434878e-06
-0.00022948558
7.9887174e-06
-7.4492532e-05
-0.00076005165
-0.00089623401
-0.0010284439
-0.0011454017
-0.0012419463
-0.0013161804
-0.0013598341
-0.0013685138
-0.0013184051
-0.0012002246
-0.0010457882
-0.00088834557
-0.00073983095
-0.00060935164
-0.00049496162
-0.00037797449
-0.00023412065
-0.00063540807
-0.00053262225
-0.00044536715
-6.6545494e-05
-7.0268612e-05
-0.00034977051
-0.00022149687
-7.4492532e-05
-0.00071196303
-4.8088623e-05
-0.00081438464
-8.184937e-05
-0.00091177048
-0.00011667337
-0.00099400145
-0.00015140028
-0.0010547
-0.00018724626
-0.0010891162
-0.00022706417
-0.0010965951
-0.00026323896
-0.0010847948
-0.00028371902
-0.0010463127
-0.00027209245
-0.00096970825
-0.00023051632
-0.00086468726
-0.00018110095
-0.00075484918
-0.0001334964
-0.00064968714
-9.014381e-05
-0.00055439247
-5.4959173e-05
-0.00046437361
-3.0588017e-05
-0.00036179856
-1.6175933e-05
-0.00022703364
-7.0870084e-06
-1.9371354e-05
-0.00061603671
7.9389975e-07
-0.00053341615
1.2445065e-05
-0.00045781221
-7.0268612e-05
1.771785e-05
-0.00036748836
1.8051265e-05
-0.00023954813
1.1602986e-05
-8.6095518e-05
-0.00073133438
-0.00086247326
-0.00099361985
-0.0011106748
-0.0012061003
-0.0012763625
-0.0013236593
-0.0013480337
-0.0013300317
-0.0012418007
-0.0010952036
-0.00093595012
-0.00078318354
-0.00064453628
-0.00051933278
-0.00039238658
-0.00024320958
-7.7355621e-05
-0.00061524282
-0.00052097108
-0.00044009436
-0.00034943709
-0.00022794515
-8.6095518e-05
-0.0007493086
1.7974223e-05
-0.00085227808
-1.0195178e-05
-0.00094990516
-4.3714689e-05
-0.0010311173
-7.9557566e-05
-0.001090672
-0.00011542826
-0.0011228742
-0.00015348828
-0.0011278665
-0.00019579279
-0.001112227
-0.00023580673
-0.0010738118
-0.00025621989
-0.001005579
-0.00023622172
-0.00090468355
-0.00019052003
-0.00079122664
-0.00014472348
-0.00068035241
-0.00010283113
-0.00057721775
-6.7318532e-05
-0.00047862783
-4.0704952e-05
-0.00036968115
-2.2705425e-05
-0.00023349131
-9.7182647e-06
-7.7355621e-05
3.6225369e-05
-0.00065146818
4.343211e-05
-0.00056440319
4.2125688e-05
-0.00048222005
3.5922952e-05
-0.00038536004
2.712778e-05
-0.00025507292
1.390479e-05
-0.00010000031
-0.00071308323
-0.00083430386
-0.00096010033
-0.0010748319
-0.0011702296
-0.0012383025
-0.0012813548
-0.0013080198
-0.0013096185
-0.0012617989
-0.0011409053
-0.00098174667
-0.00082507589
-0.00068004887
-0.00054594636
-0.00041038611
-0.00025619674
-8.7073885e-05
-0.00060803607
-0.0005222775
-0.0004462971
-0.00035823226
-0.00024116813
-0.00010000031
-0.00079968853
8.6605297e-05
-0.00090450812
7.0204261e-05
-0.0010026979
4.2597518e-05
-0.0010824042
7.5722995e-06
-0.001139516
-3.071363e-05
-0.0011668908
-7.1411658e-05
-0.0011653645
-0.00011599027
-0.0011460321
-0.0001619877
-0.0011049691
-0.00020464944
-0.0010422172
-0.00021958171
-0.00094997442
-0.00019093085
-0.00083395972
-0.00014778695
-0.00071700029
-0.0001080756
-0.00060618527
-7.38636e-05
-0.00049904586
-4.6900501e-05
-0.00038337535
-2.7010758e-05
-0.00024490058
-1.1296159e-05
-8.7073885e-05
9.0227228e-05
-0.0006982633
8.2485725e-05
-0.00060476323
6.7425511e-05
-0.00051372261
5.0193542e-05
-0.0004084258
3.3389291e-05
-0.00027455743
1.4757057e-05
-0.00011475736
-0.0007094613
-0.00081790282
-0.00093249359
-0.0010398067
-0.0011319437
-0.0011976044
-0.0012367762
-0.0012620224
-0.0012669568
-0.0012468666
-0.0011695561
-0.0010248906
-0.00086478724
-0.00071426087
-0.00057290946
-0.00043027585
-0.00027191134
-9.8370044e-05
-0.00061577758
-0.00053733772
-0.00046352907
-0.00037503651
-0.00025980037
-0.00011475736
-0.00085779045
0.00014832915
-0.00096518066
0.00014727783
-0.0010640097
0.00013151609
-0.0011429937
0.00010318701
-0.0011977938
6.5850119e-05
-0.0012203004
2.2695956e-05
-0.0012108232
-2.5952995e-05
-0.001185385
-7.6637416e-05
-0.0011390147
-0.00012794209
-0.0010763477
-0.0001705189
-0.00099356195
-0.00017599418
-0.00088142446
-0.00014346611
-0.00075790774
-0.0001068795
-0.00063909868
-7.5162187e-05
-0.00052368135
-4.9228107e-05
-0.00040142179
-2.8854064e-05
-0.00026011682
-1.1794516e-05
-9.8370044e-05
0.00013577584
-0.00075155342
0.00011258519
-0.0006499229
8.5031775e-05
-0.00054856084
5.9226812e-05
-0.00043426333
3.6294779e-05
-0.00029609515
1.4141153e-05
-0.00012889852
-0.00072201461
-0.00081685151
-0.00091673184
-0.0010114777
-0.0010946068
-0.0011544503
-0.0011881272
-0.001211338
-0.0012156521
-0.0012042898
-0.0011640808
-0.0010574186
-0.00090137385
-0.00074597819
-0.00059884354
-0.00045064989
-0.00028897088
-0.00011016456
-0.00063896823
-0.00056489113
-0.00048933403
-0.00039796855
-0.00028195399
-0.00012889852
-0.00091675909
0.00019474449
-0.0010265488
0.00020969726
-0.0011256163
0.0002088845
-0.0012046049
0.00019312726
-0.0012587242
0.00016411738
-0.001276218
0.00012176779
-0.0012605078
7.2380604e-05
-0.0012288
1.7462018e-05
-0.0011756141
-4.0038012e-05
-0.0011081836
-9.6106189e-05
-0.0010289686
-0.00013511229
-0.00092763176
-0.00012978688
-0.00080150543
-9.9868423e-05
-0.00067436527
-7.1612919e-05
-0.00055091734
-4.7926195e-05
-0.00042234607
-2.8303822e-05
-0.00027773192
-1.1238969e-05
-0.00011016456
0.00016619567
-0.0008051639
0.00013035425
-0.00069524538
9.45089e-05
-0.00058384293
6.2914672e-05
-0.00046088322
3.5859847e-05
-0.00031781384
1.2241633e-05
-0.00014114015
-0.00075056342
-0.00083180429
-0.00091591908
-0.00099572041
-0.0010655969
-0.0011121007
-0.00113874
-0.0011564194
-0.0011581521
-0.0011482216
-0.0011250747
-0.001062744
-0.00093129231
-0.00077423369
-0.00062253026
-0.00047027227
-0.00030603574
-0.00012140353
-0.00067480965
-0.00060073648
-0.00052092826
-0.00042502337
-0.00030557221
-0.00014114015
-0.00097139111
0.00022082769
-0.0010833521
0.00025154777
-0.0011838689
0.00026794979
-0.0012630664
0.00026734601
-0.001315521
0.00024992408
-0.001326986
0.00021488536
-0.0013082035
0.00016946349
-0.001271243
0.00011482367
-0.0012113758
5.3223719e-05
-0.0011373856
-1.0835966e-05
-0.001055674
-6.9400747e-05
-0.00096352708
-9.9216967e-05
-0.00084484139
-8.6450921e-05
-0.00071084652
-6.3387173e-05
-0.00057932742
-4.3202837e-05
-0.00044471335
-2.5558921e-05
-0.0002962708
-9.7649362e-06
-0.00012140353
0.00018056403
-0.00085537368
0.0001373368
-0.00073807328
9.651656e-05
-0.00061744482
6.1459626e-05
-0.000486483
3.2337205e-05
-0.00033790941
9.3358684e-06
-0.00015047602
-0.00079082708
-0.00086252437
-0.00093232111
-0.00099511663
-0.001048175
-0.0010770619
-0.0010933182
-0.0011017796
-0.0010965522
-0.0010841619
-0.00106651
-0.0010329278
-0.00094405836
-0.00079729744
-0.0006427146
-0.00048791618
-0.00032182972
-0.00013116847
-0.00071803688
-0.00064155672
-0.00055598519
-0.00045414579
-0.00032857354
-0.00015047602
-0.001021924
0.00023109689
-0.0011360244
0.00027350004
-0.0012368366
0.00030451544
-0.0013150122
0.00031989556
-0.0013625112
0.00031433623
-0.0013681326
0.00029107067
-0.0013482312
0.00025491307
-0.0013065617
0.00020478214
-0.0012407793
0.00014422711
-0.0011609085
7.6746614e-05
-0.0010747083
8.1983523e-06
-0.00098522358
-4.7704254e-05
-0.00087983315
-6.4225213e-05
-0.00074648136
-5.0816082e-05
-0.00060746924
-3.524536e-05
-0.00046704823
-2.0867956e-05
-0.00031427675
-7.5529724e-06
-0.00013116847
0.00018309071
-0.00090112759
0.00013495007
-0.00077650679
9.1450373e-05
-0.00064743556
5.5112004e-05
-0.0005092578
2.6110169e-05
-0.00035468371
5.7112042e-06
-0.00015618722
-0.00083883326
-0.00090492752
-0.00096333651
-0.0010104967
-0.0010426156
-0.0010537964
-0.0010571606
-0.0010516486
-0.0010359971
-0.0010166814
-0.0009979617
-0.00097702522
-0.0009275374
-0.00081070657
-0.00065828532
-0.00050229359
-0.00033514471
-0.00013872144
-0.00076617752
-0.00068505642
-0.00059232356
-0.00048314763
-0.00034897251
-0.00015618722
-0.001068825
0.00022999177
-0.0011847942
0.00027986672
-0.0012818792
0.00031854271
-0.0013525762
0.00034207943
-0.0013897876
0.00034717198
-0.0013919865
0.00033819008
-0.0013723982
0.00031523765
-0.0013271789
0.00027553027
-0.0012582488
0.00022225168
-0.0011747733
0.00015809185
-0.0010846815
8.6719807e-05
-0.00099429954
1.7274313e-05
-0.00089915818
-2.8379221e-05
-0.00077727169
-3.343488e-05
-0.00063398203
-2.4303285e-05
-0.00048780681
-1.4486773e-05
-0.00033036416
-4.7805434e-06
-0.00013872144
0.00017588994
-0.00094206745
0.00012446309
-0.00080951951
7.9865128e-05
-0.00067218869
4.4199718e-05
-0.00052734735
1.7622325e-05
-0.00036659483
1.6226875e-06
-0.00015780991
-0.00089293509
-0.00095480248
-0.0010020125
-0.0010340335
-0.0010477082
-0.0010448145
-0.0010342081
-0.0010119412
-0.00098271853
-0.0009525216
-0.00092658966
-0.00090757973
-0.00088188387
-0.00080565091
-0.00066741691
-0.0005121101
-0.00034485094
-0.00014350198
-0.00081760436
-0.00072965438
-0.00062798897
-0.00050972502
-0.00036497215
-0.00015780991
-0.0011023037
0.00020936863
-0.0012133336
0.00025853107
-0.0013023473
0.0003003348
-0.0013656505
0.00033161707
-0.0013955008
0.00034779258
-0.0013953
0.00035048554
-0.0013761271
0.000341919
-0.0013298412
0.00031789994
-0.0012606626
0.00027794402
-0.0011758185
0.00022329692
-0.0010834131
0.00015682339
-0.00099106354
8.3483814e-05
-0.0009012415
1.9357632e-05
-0.00079538528
-1.0265629e-05
-0.00065646479
-1.0952123e-05
-0.00050541829
-6.6918059e-06
-0.00034324642
-1.6045114e-06
-0.00014350198
0.00015684319
-0.00097444755
0.00010609585
-0.00083575023
6.2677141e-05
-0.00069066611
2.9496118e-05
-0.00053922114
7.3375271e-06
-0.00037230967
-2.8357529e-06
-0.00015497416
-0.00094546053
-0.0010039649
-0.0010438162
-0.0010653157
-0.0010638837
-0.0010475075
-0.0010256416
-0.00098792219
-0.00094276261
-0.0008978745
-0.00086011613
-0.00083424015
-0.00081775768
-0.00077602765
-0.00066673042
-0.00051637042
-0.00034993823
-0.00014510649
-0.0008683517
-0.00077307309
-0.00066116999
-0.00053188361
-0.00037514543
-0.00015497416
-0.0010992413
0.00015378073
-0.0011977655
0.0001938006
-0.0012775801
0.0002337639
-0.0013365237
0.00027120796
-0.001370346
0.00030646226
-0.0013793955
0.00033188802
-0.001363245
0.00033760343
-0.0013169431
0.00032902088
-0.0012484898
0.00030572724
-0.0011635399
0.00026566535
-0.0010699543
0.00020983816
-0.00097595229
0.00014171214
-0.00088813744
7.0379754e-05
-0.00079625748
2.0229834e-05
-0.00067106327
4.3328528e-06
-0.00051844256
2.0721444e-06
-0.00035180224
1.8640134e-06
-0.00014510649
0.00011408268
-0.00098243438
7.5254972e-05
-0.00084832806
3.9555112e-05
-0.0007007251
1.1914735e-05
-0.00054379835
-4.0073909e-06
-0.00037113803
-7.3884482e-06
-0.00014758571
-0.00098515859
-0.0010439848
-0.0010837795
-0.0011027598
-0.001099138
-0.0010729332
-0.001031357
-0.00097933965
-0.00091946896
-0.00085781262
-0.00080428894
-0.00076611414
-0.00074642529
-0.00072587773
-0.00065083344
-0.00051410971
-0.0003497301
-0.00014324248
-0.00090717941
-0.00080877295
-0.00068881037
-0.00054780574
-0.00037852648
-0.00014758571
-0.0010528995
6.7740872e-05
-0.0011428771
9.8892348e-05
-0.0012198748
0.00013609523
-0.0012795711
0.00017681127
-0.0013174986
0.00021836056
-0.0013329929
0.00026005967
-0.0013241291
0.0002927721
-0.0012854064
0.00030606678
-0.0012206911
0.0003012221
-0.0011376831
0.00027987049
-0.0010444529
0.00024016401
-0.00094962964
0.0001835155
-0.00086195837
0.00011553308
-0.00077971081
5.3833077e-05