/*--------------------------------*- C++ -*----------------------------------*\
| =========                 |                                                 |
| \\      /  F ield         | OpenFOAM: The Open Source CFD Toolbox           |
|  \\    /   O peration     | Version:  2112                                  |
|   \\  /    A nd           | Website:  www.openfoam.com                      |
|    \\/     M anipulation  |                                                 |
\*---------------------------------------------------------------------------*/
FoamFile
{
    version     2.0;
    format      ascii;
    arch        "LSB;label=32;scalar=64";
    class       volVectorField;
    location    "0";
    object      U;
}
// * * * * * * * * * * * * * * * * * * * * * * * * * * * * * * * * * * * * * //

dimensions      [ 0 1 -1 0 0 0 0 ];

internalField   nonuniform List<vector> 
16200
(
(0.1024017 -0.014936315 1.2213908e-27)
(0.15233727 -0.01100974 0)
(0.32297774 0.00059768312 -1.8007156e-21)
(0.071468414 -0.0007057825 0)
(0.38588172 0.0054316647 7.9293067e-22)
(0.40359757 0.019117978 2.0367914e-21)
(0.14704521 -0.0022561558 -7.7033308e-22)
(0.51330487 0.010770935 -1.8016604e-21)
(0.30242397 -0.00047442602 0)
(0.56971004 0.03693501 -5.4521012e-23)
(0.070165865 -0.00077082795 8.4926668e-22)
(0.57849381 0.030467769 2.1999552e-21)
(0.55293971 0.0058289506 0)
(0.37080682 -0.0040602507 0)
(0.14618283 -0.0044950916 2.2049547e-23)
(0.66624874 0.037165408 -8.0695912e-22)
(0.64335821 0.0085823635 0)
(0.49503201 -0.0029320865 0)
(0.29813156 -0.0069104867 6.741421e-22)
(0.075221356 -0.0018568637 0)
(0.68378349 0.022474257 0)
(0.72012465 0.060919771 0)
(0.67722185 -0.0030760346 3.7630352e-23)
(0.54493555 -0.010487756 1.7191842e-21)
(0.36779413 -0.011583217 -6.5082334e-22)
(0.15206228 -0.0061158181 0)
(0.74804153 0.023349352 0)
(0.77839773 0.055915366 9.5963692e-22)
(0.64050139 -0.014494212 0)
(0.76418289 -0.0064982714 -5.4328633e-21)
(0.49412163 -0.015113511 -1.7936685e-21)
(0.30166677 -0.011484719 0)
(0.083455657 -0.0027161175 -3.262037e-21)
(0.77938831 0.0073567689 7.5044872e-21)
(0.78714737 0.039006292 -1.2465437e-21)
(0.83202294 0.079851131 0)
(0.68485046 -0.027536721 1.9380075e-21)
(0.8015343 -0.027518338 0)
(0.54878223 -0.023480218 0)
(0.37287871 -0.017126072 -2.860613e-21)
(0.16236696 -0.006927539 8.0694604e-21)
(0.84604466 0.010271906 0)
(0.8431031 0.032526975 0)
(0.89055069 0.069017302 0)
(0.77143148 -0.038607066 -3.4610567e-21)
(0.64937067 -0.031973112 -2.4683109e-21)
(0.89436887 -0.041552577 0)
(0.50083499 -0.024377676 0)
(0.31111687 -0.014519298 2.9122229e-21)
(0.093197384 -0.0032091665 -4.8641134e-21)
(0.89954651 -0.0029953234 -2.6900045e-22)
(0.89513333 0.043586281 0)
(0.95849552 0.094938384 0)
(0.8191444 -0.056748484 1.6177381e-21)
(0.6991033 -0.04476862 5.275094e-22)
(0.94114167 -0.065954907 -3.9717366e-22)
(0.91900751 -0.023224119 5.2775279e-21)
(0.55963905 -0.032550447 3.9657528e-21)
(0.38370943 -0.020339381 -6.4184671e-21)
(0.17515677 -0.0068746338 1.168213e-22)
(0.96230319 0.0021590439 -7.2139098e-21)
(0.9570099 0.028868828 6.4083887e-22)
(1.027348 0.073507431 0)
(0.91224302 -0.077552841 -3.0958762e-21)
(0.79089083 -0.06063143 1.8150346e-21)
(0.66544529 -0.044433361 -3.2585288e-21)
(1.0577017 -0.090354462 1.2542228e-20)
(1.0200769 -0.0395929 -9.4237546e-23)
(0.5131749 -0.03022403 -4.0200621e-21)
(0.32475469 -0.015810751 6.3760664e-21)
(0.10323455 -0.0033138089 0)
(1.0288903 -0.017623658 0)
(1.0286727 0.040987136 0)
(1.1055386 0.10178666 0)
(0.96744013 -0.099530861 4.3892696e-21)
(0.84318205 -0.076531697 1.5808563e-22)
(0.71897465 -0.055469 3.2880324e-21)
(1.0758297 -0.072587933 -2.9191157e-21)
(1.1100761 -0.1220878 -5.6547722e-21)
(0.57523826 -0.037527238 0)
(0.39849045 -0.021301238 1.0490348e-20)
(0.18876376 -0.0061366426 -1.2399383e-20)
(1.1060719 -0.015210377 1.2905206e-20)
(1.1058295 0.019629833 -1.297999e-21)
(1.1811543 0.070436306 0)
(1.0658362 -0.12326238 -2.7475477e-21)
(0.93758038 -0.099175849 -1.2761301e-21)
(0.81626131 -0.073809084 4.7205163e-21)
(0.68584982 -0.051396868 -7.7998008e-21)
(1.1880102 -0.079704711 1.0816271e-20)
(1.2034802 -0.1437029 0)
(0.52949269 -0.032776471 -1.03998e-20)
(0.34095547 -0.015488815 -1.0562867e-20)
(0.11253164 -0.0030763644 2.6791157e-20)
(1.1923016 -0.044337321 -9.2097118e-21)
(1.1811393 0.032801478 0)
(1.260195 0.10134607 0)
(1.1286498 -0.14641509 3.1408964e-21)
(0.99746057 -0.1170691 3.9663151e-21)
(0.87205966 -0.086730603 -1.1999147e-20)
(0.74260261 -0.060357952 -2.3116403e-21)
(1.2707245 -0.11891143 -1.4491206e-20)
(1.2700958 -0.14624494 -8.6395776e-21)
(1.2533164 -0.16947773 -5.2722372e-21)
(0.59397654 -0.038866598 1.0428643e-20)
(0.41553317 -0.020287123 0)
(0.2018062 -0.0049028485 -1.4306192e-20)
(1.2712995 -0.033075841 0)
(1.2599191 0.0093706269 0)
(1.3366213 0.064456857 0)
(1.0963386 -0.14296887 -4.8461649e-22)
(1.228278 -0.17302452 5.7198891e-21)
(0.97098397 -0.11045375 -3.7708293e-21)
(0.8455766 -0.079688188 7.274631e-21)
(0.70896345 -0.053566373 1.0219333e-20)
(1.3721452 -0.12999971 7.905856e-21)
(1.3601205 -0.17927457 1.0201098e-20)
(1.3509641 -0.19242359 0)
(0.54827952 -0.032369557 0)
(0.35806708 -0.01381187 1.6593043e-20)
(0.1202293 -0.0025485157 0)
(1.3590593 -0.060397327 0)
(1.338249 0.026166155 -8.5929712e-21)
(1.4094508 0.095449773 0)
(1.1616456 -0.16042475 0)
(1.2858419 -0.19364043 -1.4307269e-21)
(1.032964 -0.12424536 0)
(0.90411688 -0.089686728 6.7860147e-22)
(0.76841299 -0.06041787 4.3051189e-22)
(1.3852404 -0.097820266 0)
(1.4457853 -0.16901974 -8.7587525e-21)
(1.4357003 -0.19532179 0)
(1.4027869 -0.21949919 -2.1284989e-21)
(0.61442374 -0.037027057 -1.6932062e-20)
(0.43315383 -0.017606227 -1.6726839e-20)
(0.21308936 -0.003307981 7.5459726e-23)
(1.419098 -0.043007895 6.1427932e-21)
(1.4161792 -0.0042423534 9.0731718e-21)
(1.4762516 0.051938618 -1.6488006e-22)
(1.135746 -0.15193377 0)
(1.2633607 -0.19030952 0)
(1.3854085 -0.22224332 2.1402146e-21)
(1.0082388 -0.11399521 -1.2565276e-20)
(0.87694463 -0.079817491 -1.5360118e-20)
(0.73342778 -0.051637029 0)
(1.4753918 -0.10497795 1.1947116e-20)
(1.516454 -0.17391885 0)
(1.5071097 -0.2301287 0)
(1.4942792 -0.24244488 2.125444e-21)
(0.56798871 -0.029341316 1.6985328e-20)
(0.37437161 -0.011019782 -7.4998974e-23)
(0.12561024 -0.0018186475 0)
(1.4833266 -0.068045023 -6.1984106e-21)
(1.4751697 0.012987937 1.7142835e-22)
(1.5197522 0.082030814 0)
(1.2031356 -0.16619569 1.1016461e-20)
(1.3278452 -0.20799452 -2.8928699e-22)
(1.4423672 -0.24351445 2.552864e-21)
(1.0725173 -0.12454459 1.1908441e-20)
(0.93789899 -0.087043274 3.2270788e-20)
(0.79497052 -0.056301981 0)
(1.5277596 -0.14024805 -5.443606e-21)
(1.5704535 -0.20672524 0)
(1.5618361 -0.23611964 0)
(1.5390046 -0.26691418 -2.2255648e-21)
(0.63506481 -0.032362458 3.1665431e-22)
(0.44970993 -0.013547737 -2.1917755e-20)
(0.22161774 -0.0014301626 2.2784624e-20)
(1.5287143 -0.060639353 7.4089512e-21)
(1.5311238 -0.017801936 0)
(1.5603995 0.036813089 -1.9550938e-22)
(1.1800549 -0.15364897 -1.0966848e-20)
(1.3063145 -0.1976161 0)
(1.4219975 -0.23711475 -7.480656e-21)
(1.5122017 -0.26561393 9.0831409e-23)
(1.0479808 -0.11130169 0)
(0.90895182 -0.074971027 2.2836829e-21)
(0.75781328 -0.045986604 -3.1573617e-22)
(1.5666977 -0.13558527 -3.7116214e-21)
(1.5906948 -0.20427109 0)
(1.5989003 -0.26154155 -2.6441646e-21)
(1.5871486 -0.27891107 5.3765974e-22)
(0.58691281 -0.02398722 0)
(0.38824625 -0.0073679876 4.5190113e-20)
(0.12819911 -0.00090310761 -2.2690839e-20)
(1.571866 -0.093237466 -2.0005494e-21)
(1.5610844 -0.0023975024 1.9725443e-22)
(1.5787743 0.070725333 0)
(1.2497252 -0.16465682 0)
(1.3741032 -0.21084992 -1.1519447e-20)
(1.47885 -0.25027539 5.4129979e-21)
(1.5564681 -0.27778844 0)
(1.1145358 -0.11877443 5.6068134e-22)
(0.97206154 -0.079369101 -1.9300978e-20)
(0.82073527 -0.04826866 0)
(1.5937327 -0.16609892 -1.3079336e-21)
(1.6027997 -0.22968374 -9.5998638e-22)
(1.5969509 -0.27879459 7.306084e-22)
(1.6005747 -0.25800341 4.358839e-21)
(1.600416 -0.2881415 -6.5316821e-22)
(0.65422435 -0.025150539 0)
(0.46357098 -0.0083618996 -2.3339694e-20)
(0.22657252 0.00061776381 0)
(1.5880901 -0.08078779 -4.4053325e-21)
(1.5879789 -0.035851539 0)
(1.5924254 0.025835548 6.7625559e-22)
(1.2262701 -0.14746301 -5.6147647e-22)
(1.35239 -0.19413473 1.2048798e-20)
(1.4595899 -0.23661341 -1.0146711e-20)
(1.5385199 -0.26806685 -3.2925801e-22)
(1.5954153 -0.28671677 0)
(1.0882833 -0.10290235 -2.2143514e-20)
(0.94033396 -0.065335437 0)
(0.78044546 -0.036854335 0)
(1.5981576 -0.15512891 1.2546151e-21)
(1.5965722 -0.21935627 0)
(1.6050437 -0.28487689 -6.9464379e-22)
(1.5985115 -0.27102633 -1.0921968e-21)
(1.6031505 -0.28970229 -1.3047209e-21)
(0.60322911 -0.016564369 2.5195135e-20)
(0.39827767 -0.0030424024 0)
(0.12775792 0.00014478839 0)
(1.5982876 -0.11149496 -5.8417046e-23)
(1.5934514 -0.015098225 2.2379104e-22)
(1.590187 0.063947221 -6.5577919e-22)
(1.2948812 -0.15127842 0)
(1.414577 -0.19610106 1.6738214e-20)
(1.5086606 -0.23530791 2.149902e-20)
(1.5739204 -0.26565695 1.2222069e-22)
(1.6048986 -0.28390491 -1.8225338e-21)
(1.1556407 -0.106227 2.1787316e-20)
(1.0046758 -0.066570169 0)
(0.84406671 -0.036541682 -2.0214617e-22)
(1.598559 -0.18240258 9.0380435e-22)
(1.5848918 -0.23503842 5.3786377e-22)
(1.5965699 -0.2840423 -6.0460155e-22)
(1.5796166 -0.26207915 -3.556585e-22)
(1.6041471 -0.28988171 3.3360529e-22)
(0.67014859 -0.015627651 -5.1163888e-20)
(0.47319298 -0.002261757 2.5711344e-20)
(0.22734411 0.0025250294 0)
(1.5934756 -0.09224678 -3.8122538e-21)
(1.5951611 -0.04665746 -4.8109922e-22)
(1.5864098 0.022291764 0)
(1.2663241 -0.12823809 0)
(1.3886965 -0.17112738 -1.6659875e-20)
(1.4870392 -0.2110858 -1.1613061e-20)
(1.5582395 -0.24498705 -2.8161568e-22)
(1.6018175 -0.27263055 -8.5896968e-22)
(1.6037974 -0.28614351 1.8270294e-21)
(1.1245118 -0.086770826 2.5703848e-20)
(0.9685249 -0.051079369 -2.6707203e-20)
(0.79967035 -0.024500497 0)
(1.5793667 -0.16701059 -8.9630248e-22)
(1.549795 -0.21976456 -4.153882e-21)
(1.5884052 -0.28579335 1.138832e-21)
(1.5524395 -0.26322402 1.4109509e-22)
(1.5906192 -0.28894044 0)
(0.6151635 -0.0073754041 2.6057391e-20)
(0.40326394 0.0017900277 -5.1696226e-20)
(0.12387427 0.0012000676 0)
(1.5816528 -0.11865333 4.1297026e-21)
(1.5825624 -0.019119669 0)
(1.5680426 0.066309792 0)
(1.3240454 -0.11810689 0)
(1.4364556 -0.15444588 -2.0669987e-20)
(1.5229565 -0.18972767 1.5409082e-20)
(1.5822029 -0.22238272 -9.2658445e-21)
(1.6084404 -0.25109927 2.4513718e-21)
(1.6034897 -0.27369677 1.2566805e-21)
(1.1878168 -0.081639511 -2.567869e-20)
(1.0318288 -0.048122928 2.678502e-20)
(0.86293261 -0.021404142 0)
(1.5524722 -0.18555099 2.8195536e-21)
(1.5128833 -0.2278353 4.4918531e-21)
(1.5507903 -0.28105162 1.3432471e-21)
(1.5113812 -0.24934431 -3.4920701e-21)
(1.5403434 -0.27304175 7.9560029e-22)
(1.5802707 -0.28274732 2.6144105e-22)
(0.6812612 -0.0042244511 0)
(0.47743071 0.0044352308 2.5963694e-20)
(0.22358357 0.0043952928 0)
(1.5436121 -0.10048424 0)
(1.5599646 -0.030406146 -1.8486443e-21)
(1.5333239 0.036216971 -2.2424563e-21)
(1.286498 -0.089583886 0)
(1.4030098 -0.12155468 2.061548e-20)
(1.4964712 -0.15537759 1.5440558e-21)
(1.5646234 -0.19016214 9.1674943e-21)
(1.6035169 -0.22386609 0)
(1.6051056 -0.25216781 -3.8079903e-21)
(1.5838091 -0.27251159 0)
(1.1480222 -0.058798697 1.0738827e-22)
(0.98884234 -0.031102615 2.8782767e-20)
(0.81313116 -0.0095744083 2.8131707e-20)
(1.5052294 -0.16561985 4.0771167e-21)
(1.4575475 -0.20967888 3.5567379e-21)
(1.525045 -0.27872662 -1.0720276e-20)
(1.4686583 -0.2491857 4.5197355e-21)
(1.4792308 -0.26365522 -8.8668285e-22)
(1.5367539 -0.27621891 1.665534e-21)
(0.62134044 0.0029935855 -6.4316182e-24)
(0.4024185 0.0067519994 0)
(0.11667266 0.0021558609 2.4102844e-20)
(1.5395709 -0.065888523 0)
(1.5030833 -0.12905085 0)
(1.5289401 0.0036968003 2.2226831e-21)
(1.4955998 0.075954202 2.1910114e-21)
(1.3271703 -0.062692174 0)
(1.4351669 -0.087646205 -2.361877e-20)
(1.5211731 -0.11829966 -1.6835743e-20)
(1.5810985 -0.15311089 -1.1690257e-20)
(1.6084897 -0.1887676 -4.641992e-21)
(1.6025895 -0.22266776 3.1785461e-21)
(1.5708538 -0.24959231 -6.1633589e-21)
(1.1980058 -0.041294919 -1.1036832e-22)
(1.0463558 -0.021026267 -2.8783424e-20)
(0.87418826 -0.0033612585 -2.8132822e-20)
(1.4553037 -0.1789315 -1.0368919e-20)
(1.4025147 -0.21405806 0)
(1.4623837 -0.26813494 1.1348417e-22)
(1.4109537 -0.23589662 -3.6451034e-21)
(1.448958 -0.26218095 0)
(1.5081834 -0.26027042 1.3681747e-20)
(0.68617706 0.0081513267 6.6406096e-24)
(0.47556868 0.011144274 2.4524204e-20)
(0.21527275 0.0061300894 -4.7215881e-20)
(1.4874805 -0.046559132 2.200663e-21)
(1.4460212 -0.10444638 -9.514539e-21)
(1.4858667 -0.0090260055 -2.2923999e-21)
(1.4482763 0.049132139 0)
(1.2806915 -0.031890866 1.1013899e-22)
(1.3949171 -0.051125517 2.3429685e-20)
(1.4908292 -0.078495187 1.6538832e-22)
(1.5623141 -0.11366437 -1.0073751e-21)
(1.6024459 -0.15221346 4.6190796e-21)
(1.6058524 -0.18884453 -1.6681949e-21)
(1.5800486 -0.22230469 6.1402869e-21)
(1.5220341 -0.24541626 -7.9718402e-21)
(1.148499 -0.017627119 0)
(0.99473379 -0.0040373332 -2.8829414e-20)
(0.8178504 0.0075438478 -6.6115572e-24)
(1.3877877 -0.15556157 -4.565322e-21)
(1.3302709 -0.19350482 -7.8255316e-21)
(1.422819 -0.25558007 0)
(1.3589581 -0.23502135 4.2810406e-21)
(1.3753668 -0.24786567 0)
(1.4403081 -0.2506334 1.0524451e-20)
(0.62094756 0.013539421 0)
(0.39538362 0.011450091 -1.1741059e-21)
(0.10667351 0.0029975039 1.4032663e-21)
(1.4470775 -0.064192 0)
(1.3866766 -0.11794911 8.3973477e-21)
(1.4459404 0.015999021 0)
(1.387864 0.080047971 0)
(1.305977 0.0065726188 -5.2441848e-23)
(1.4161935 -0.0075898264 2.4872764e-20)
(1.5093449 -0.033195029 0)
(1.57613 -0.068516004 2.6277233e-20)
(1.6075012 -0.11011877 0)
(1.6022859 -0.15183304 0)
(1.5659913 -0.18924834 0)
(1.4934838 -0.21647408 1.1741113e-20)
(1.1817257 0.01214558 0)
(1.0391701 0.0147783 2.883188e-20)
(0.87281359 0.018258981 6.7066905e-24)
(1.3225246 -0.16326882 3.0374105e-21)
(1.2658381 -0.19495586 0)
(1.3437316 -0.2420053 -1.2301561e-20)
(1.2809218 -0.21679251 -7.4929763e-22)
(1.3225393 -0.23898233 4.5961395e-21)
(1.3983008 -0.22785646 -1.0690904e-20)
(0.6833166 0.020679223 2.4160701e-20)
(0.46741819 0.017252629 -2.3352941e-20)
(0.20274883 0.0074782019 1.7175012e-21)
(1.3919209 -0.0334461 0)
(1.3212334 -0.08503048 -1.5414472e-20)
(1.3949827 0.0028368795 0)
(1.3352559 0.056641999 2.7894032e-21)
(1.2526441 0.03483609 0)
(1.3707076 0.027752835 -5.0234602e-20)
(1.4743561 0.0081769782 0)
(1.5547348 -0.02410982 8.010774e-22)
(1.6008854 -0.065989733 0)
(1.60669 -0.11029651 -2.1109931e-21)
(1.5804495 -0.15208518 0)
(1.5143425 -0.18894991 -2.5209185e-20)
(1.4211059 -0.21164685 -1.4962816e-20)
(1.1245873 0.033216903 0)
(0.98002565 0.029093872 2.7093407e-20)
(0.81011644 0.026815789 -2.5102504e-20)
(1.2410366 -0.13113586 3.518032e-21)
(1.1849189 -0.17011614 0)
(1.2892053 -0.22344157 1.8133579e-20)
(1.2167266 -0.20991195 -2.1546411e-22)
(1.2376317 -0.2214365 -3.515248e-21)
(1.3144792 -0.21670427 -9.8024618e-21)
(0.61301154 0.023652575 -2.4162741e-20)
(0.38260496 0.015416214 2.0062758e-20)
(0.094851228 0.0036770973 1.9884796e-20)
(1.3287319 -0.045568864 0)
(1.2436583 -0.092125552 1.6523804e-20)
(1.3383963 0.028514359 6.9853836e-21)
(1.2445693 0.072765818 -2.7063224e-21)
(1.2681052 0.078161096 -2.7224095e-20)
(1.3860928 0.07442142 5.0788023e-20)
(1.489627 0.05694105 2.1434575e-20)
(1.5668917 0.025822674 -2.9406901e-20)
(1.6059996 -0.01750957 0)
(1.6039323 -0.066332149 2.0143093e-21)
(1.5671636 -0.11412905 9.4643238e-21)
(1.4867845 -0.15411379 4.3167914e-20)
(1.3797186 -0.18002318 -2.1715606e-21)
(1.1437417 0.06984563 0)
(1.0098478 0.055182753 -2.7099869e-20)
(0.85486333 0.042138131 2.510315e-20)
(1.1699171 -0.1342639 0)
(1.1147756 -0.16652077 0)
(1.1997441 -0.20785358 0)
(1.1315123 -0.18755324 1.0701533e-21)
(1.1739957 -0.20639219 3.1907643e-21)
(1.2605791 -0.1898935 -1.6288481e-20)
(0.67068357 0.032650749 2.0623154e-20)
(0.45323595 0.022127825 -3.8064941e-20)
(0.18670345 0.0080762538 -1.5797278e-20)
(1.2720822 -0.0089635934 0)
(1.178811 -0.053692169 1.4122179e-20)
(1.2764505 0.019487466 -6.8029301e-21)
(1.1897809 0.053382331 1.5272841e-22)
(1.2101239 0.09973664 2.7207826e-20)
(1.3351187 0.10408465 -2.5292239e-20)
(1.4490861 0.094576455 -3.400481e-22)
(1.5408344 0.070029999 1.4968931e-20)
(1.5970409 0.031639735 0)
(1.6080034 -0.016791847 0)
(1.5851663 -0.067670333 4.7524079e-22)
(1.5141047 -0.11654824 -2.956165e-20)
(1.4094005 -0.15342377 -2.0688736e-21)
(1.2909979 -0.17346592 1.6241856e-20)
(1.0813356 0.083714965 0)
(0.94616723 0.063437325 -7.4838263e-25)
(0.78820362 0.046110807 1.6680527e-25)
(1.0899914 -0.10357526 -2.3170969e-20)
(1.0390537 -0.13782706 0)
(1.1370879 -0.18531251 0)
(1.0641283 -0.17629904 -8.6788305e-22)
(1.0846872 -0.18655352 2.72765e-22)
(1.1672895 -0.17765379 1.6107036e-20)
(0.59674914 0.032483633 -2.0630437e-20)
(0.36484854 0.018022808 1.8009862e-20)
(0.082487151 0.0040482998 1.5761503e-20)
(1.1916525 -0.016733251 -8.9458959e-21)
(1.1043477 -0.047801595 -2.2334001e-20)
(1.2048063 0.034296903 -1.5209682e-22)
(1.0746865 0.0562834 -2.5723342e-21)
(1.221158 0.14129243 0)
(1.3488798 0.14880585 1.0796383e-23)
(1.4635673 0.14175566 -4.1472224e-20)
(1.5526571 0.11912548 1.5089182e-20)
(1.6025071 0.081126789 7.5302011e-21)
(1.6065795 0.03191453 -4.4001011e-23)
(1.5731138 -0.02359603 -9.587864e-21)
(1.4874421 -0.076035403 2.9873363e-22)
(1.3691342 -0.11577386 1.9056894e-20)
(1.2392891 -0.13996952 -2.1073297e-20)
(1.0918181 0.12066364 0)
(0.96357053 0.092275331 2.111949e-20)
(0.82145789 0.064313374 0)
(1.086365 -0.072463886 2.0246018e-20)
(1.0285071 -0.1116343 8.0809256e-21)
(0.97421483 -0.13201275 -1.7416388e-21)
(1.0441144 -0.16853533 0)
(0.98607515 -0.15077563 1.7680798e-21)
(1.019481 -0.16791583 0)
(1.1070329 -0.14885825 -3.4879663e-20)
(0.64810573 0.042766223 1.5850776e-20)
(0.43366963 0.025112803 0)
(0.16872131 0.0079241735 0)
(1.1404199 0.0085086657 1.1995116e-20)
(1.0259261 -0.026012504 5.2569563e-21)
(1.139161 0.024554248 0)
(1.0187258 0.039075458 1.2722392e-21)
(1.1595467 0.15270361 0)
(1.2933195 0.16872021 0)
(1.4178579 0.17068136 2.0330457e-20)
(1.5214786 0.15733237 -1.5075476e-20)
(1.5899179 0.12761706 2.2161348e-22)
(1.6097261 0.083121255 0)
(1.5927595 0.029828583 4.3942396e-23)
(1.5204594 -0.027722885 -2.1289963e-22)
(1.4058261 -0.078995337 -2.9859434e-22)
(1.2758973 -0.11398196 2.1023013e-20)
(1.1422619 -0.13248574 1.8786434e-20)
(1.0274932 0.1253164 2.03493e-20)
(0.89822834 0.092385303 -2.1139242e-20)
(0.75377701 0.062156952 0)
(0.98889855 -0.050780693 2.1942776e-20)
(0.95742354 -0.082259077 7.5230651e-21)
(0.90853906 -0.10236066 0)
(0.98196333 -0.14421595 0)
(0.92256303 -0.13663232 -5.7332579e-23)
(0.93801703 -0.14633516 -6.8683998e-21)
(1.0111902 -0.13645929 0)
(0.57275983 0.038873508 -1.5860181e-20)
(0.34340461 0.018929773 -1.0578948e-20)
(0.070497365 0.0040881625 0)
(1.0373588 0.0062540427 -9.5117061e-21)
(0.95453382 -0.031188064 -1.3059581e-20)
(1.0096924 -0.0042803653 7.5614469e-21)
(1.0477987 0.028465656 0)
(0.88286683 0.037067681 1.1559274e-21)
(1.1707752 0.18748903 0)
(1.308385 0.20608594 0)
(1.4331556 0.21106836 0)
(1.5334769 0.20104869 0)
(1.5959654 0.17411974 -7.7348488e-21)
(1.608203 0.13086243 0)
(1.5815937 0.076280947 9.0730477e-21)
(1.494637 0.017236718 0)
(1.3669609 -0.035590332 0)
(1.2269965 -0.074994948 0)
(1.0857417 -0.098651655 2.3039596e-20)
(1.0348225 0.15702328 -2.0348956e-20)
(0.90812946 0.11884702 0)
(0.77740103 0.08029185 -1.2682033e-20)
(0.93739409 -0.057192923 -1.6743814e-20)
(0.89415237 -0.080299691 0)
(0.84506544 -0.093539827 -2.0330682e-22)
(0.89732953 -0.12708076 0)
(0.85723481 -0.10993979 2.9940133e-22)
(0.87777043 -0.12636272 6.9082901e-21)
(0.95318999 -0.10786726 0)
(0.61756427 0.049236465 1.0253422e-20)
(0.41025293 0.025687886 1.0579059e-20)
(0.15067919 0.0068967136 5.3286764e-26)
(0.98306909 0.016333734 -2.0927841e-21)
(0.85771867 -0.021838878 -1.7005528e-20)
(0.87338397 -0.001381758 0)
(0.83279075 0.025035292 -5.0126433e-21)
(1.1067023 0.18821011 0)
(1.2491478 0.21466019 -1.5988104e-20)
(1.3835338 0.22826783 0)
(1.4972235 0.22787544 0)
(1.5784253 0.21237905 -7.5320323e-21)
(1.6096374 0.17753615 9.4849902e-22)
(1.6012382 0.12948007 -1.71628e-20)
(1.5318723 0.070734287 -1.0232952e-22)
(1.4113895 0.010165069 0)
(1.2709188 -0.039749443 0)
(1.1270331 -0.073692694 -2.3014866e-20)
(0.98799134 -0.092199918 0)
(0.97022122 0.15192922 0)
(0.84387571 0.11059535 -1.1579568e-20)
(0.71158594 0.071857989 2.2053632e-20)
(0.83821006 -0.038768939 8.4056127e-21)
(0.80962533 -0.056506765 5.7310924e-21)
(0.77146552 -0.06777633 -2.3486553e-21)
(0.84179335 -0.10346353 4.0108518e-22)
(0.79702701 -0.095171112 -1.1253648e-22)
(0.81050691 -0.10424792 0)
(0.8663241 -0.096645715 1.7208891e-20)
(0.54334271 0.041561543 -1.0261872e-20)
(0.32023687 0.017885092 -5.2958942e-26)
(0.060130596 0.0037649821 -3.5414099e-21)
(0.87799034 0.015524241 -1.3124305e-22)
(0.79111525 -0.026488734 6.5942268e-22)
(0.80901703 -0.011114339 8.6608361e-21)
(0.82194532 0.006142405 7.9930349e-21)
(0.6959385 0.018224804 1.0665495e-21)
(1.1212371 0.21284393 0)
(1.2671622 0.24166291 1.5987828e-20)
(1.4006437 0.2584875 0)
(1.5101476 0.26199435 1.0888426e-20)
(1.5848342 0.25087638 1.4336023e-20)
(1.6078225 0.21923288 7.9402301e-22)
(1.5907778 0.17359764 9.1035348e-22)
(1.5072315 0.11538187 7.2179708e-23)
(1.3748637 0.054733141 0)
(1.2261206 0.0020773911 0)
(1.0759879 -0.037032873 -3.7700914e-22)
(0.9355992 -0.061202414 0)
(0.97907703 0.17465511 9.8793583e-21)
(0.85142761 0.13078155 1.1579865e-20)
(0.7293545 0.086879006 -9.3581278e-21)
(0.77238848 -0.041944423 -5.7737188e-21)
(0.74239625 -0.053629086 2.169752e-21)
(0.70595748 -0.05954757 1.4433069e-22)
(0.77259404 -0.087152713 -1.0979273e-20)
(0.73005537 -0.07093176 1.1295532e-22)
(0.75520956 -0.085688078 1.0558786e-20)
(0.8165218 -0.071050595 -1.7254068e-20)
(0.58283459 0.050401632 7.9902699e-26)
(0.3853032 0.023474311 0)
(0.13449788 0.0049832574 3.550814e-21)
(0.66797541 -0.021283882 -6.9256648e-21)
(0.68018629 -0.0094409111 7.094826e-21)
(0.68933879 0.0025188501 4.4295132e-21)
(0.67437107 0.014520641 0)
(0.6358486 0.008811041 1.0379726e-21)
(1.0561106 0.20270491 -3.2616781e-25)
(1.2055758 0.23798579 0)
(1.3484576 0.26304088 0)
(1.4706787 0.27527271 -1.8986495e-21)
(1.5618064 0.2745111 -1.2968613e-20)
(1.6072351 0.25604291 -2.9407195e-21)
(1.6063924 0.21906348 7.2965655e-21)
(1.5477387 0.16692844 -1.3374707e-20)
(1.4267078 0.10373265 -7.2271076e-23)
(1.2783507 0.043717612 -2.3889112e-20)
(1.1246112 -0.0046415029 -2.4906241e-20)
(0.97700518 -0.038267302 3.7746245e-22)
(0.84713655 -0.057267517 0)
(0.91542748 0.16058844 -9.8919841e-21)
(0.79034846 0.11537974 0)
(0.66750826 0.073181011 2.8356013e-21)
(0.65269597 -0.030405466 0)
(0.63145405 -0.037716597 1.6221565e-21)
(0.60471093 -0.041417257 0)
(0.72307493 -0.066871429 0)
(0.66864887 -0.0585775 6.776617e-21)
(0.69112599 -0.065444501 -6.7864584e-21)
(0.74525397 -0.061450313 0)
(0.51205163 0.039646412 0)
(0.29780096 0.014811045 3.6790788e-22)
(0.052702071 0.0030441497 0)
(0.60887585 -0.01441121 -4.3156487e-22)
(0.59550197 -0.022584006 6.7605028e-21)
(0.62007401 -0.0033487168 -1.3150325e-20)
(0.4650863 0.015470335 -2.5099939e-21)
(0.48175564 0.0040329328 -1.0144556e-21)
(1.0760416 0.21510185 3.2226117e-21)
(1.2276571 0.25223286 4.8089797e-21)
(1.3680789 0.28075045 -5.0406519e-26)
(1.4852217 0.29738816 -2.5278636e-21)
(1.5686433 0.30131311 1.109555e-20)
(1.606135 0.28711595 2.2722779e-21)
(1.5986489 0.25505 0)
(1.5260474 0.20420931 2.4954052e-20)
(1.3941331 0.14217203 1.8065888e-20)
(1.2392988 0.081924663 2.3992966e-20)
(1.0807484 0.030597619 4.8948832e-20)
(0.93173247 -0.0077361553 1.7316008e-22)
(0.80404084 -0.031800461 1.4883812e-22)
(0.92946653 0.17242063 -7.4983753e-26)
(0.80018592 0.1268434 0)
(0.68371584 0.082677569 -2.8356718e-21)
(0.5784179 -0.029370495 -3.5918556e-21)
(0.5562187 -0.033512697 1.9769438e-21)
(0.53078538 -0.034249877 0)
(0.65912415 -0.052028477 1.2512193e-20)
(0.57561315 -0.040570267 0)
(0.63515176 -0.050562685 -1.4411711e-22)
(0.70222531 -0.04114887 1.7250041e-20)
(0.5485148 0.04544212 0)
(0.36169082 0.018436431 -3.6790684e-22)
(0.12211361 0.0022506721 2.290184e-21)
(0.46531779 -0.011031303 4.2602038e-22)
(0.45218887 -0.016483273 -5.0889677e-21)
(0.47562622 -0.0043608776 5.8449723e-21)
(0.41386816 0.010267477 1.47885e-21)
(0.40411604 -0.0011908524 0)
(1.0120611 0.19552225 -3.2265321e-21)
(1.1655001 0.23643683 -4.8139947e-21)
(1.3140863 0.27159144 -8.5253969e-26)
(1.4438526 0.2970252 -6.4653322e-21)
(1.5424581 0.30937498 -8.6299614e-21)
(1.5999656 0.30851205 -2.480441e-21)
(1.6098806 0.28815832 -3.5050575e-21)
(1.5676521 0.24733453 7.2622316e-21)
(1.4510565 0.18798112 -1.8026095e-20)
(1.2992803 0.12503847 2.0187681e-20)
(1.137186 0.0671558 -2.4161763e-20)
(0.98051453 0.020636952 9.3784297e-23)
(0.84166716 -0.012148304 -1.734262e-22)
(0.7303339 -0.029913898 -1.7401386e-20)
(0.86858455 0.15136494 0)
(0.74374448 0.10666724 2.7786897e-21)
(0.62711887 0.065506719 0)
(0.43630595 -0.020220236 -4.3197157e-21)
(0.41730169 -0.022058568 -1.6409787e-21)
(0.39625423 -0.021654949 3.4857566e-21)
(0.60913753 -0.036572083 1.4402975e-21)
(0.50508917 -0.031213093 -5.0417493e-23)
(0.54787454 -0.034927005 -9.2459112e-21)
(0.63681879 -0.032768321 -1.3893975e-20)
(0.48291282 0.032929345 0)
(0.27873469 0.0099599892 0)
(0.049117267 0.0018675206 -2.2845039e-21)
(0.38205373 -0.011048635 -1.8849474e-22)
(0.39455249 -0.006422268 -5.9382725e-21)
(0.36697904 -0.014265469 9.648349e-21)
(0.2266401 0.0091023738 3.9407554e-21)
(0.22819777 -0.0022061609 4.1095424e-21)
(1.0374626 0.19619608 0)
(1.192511 0.23768625 -3.4657534e-21)
(1.3372526 0.27502066 0)
(1.4607474 0.30480452 0)
(1.5514091 0.32233429 3.7025914e-21)
(1.6002399 0.32491695 3.8837925e-22)
(1.6050449 0.3109937 3.5052316e-21)
(1.5495048 0.27323874 -1.8814241e-20)
(1.4233629 0.21635694 0)
(1.2658742 0.15436074 -2.6198825e-21)
(1.1005126 0.096179857 0)
(0.9430253 0.04713121 0)
(0.8058299 0.010558102 -1.9819031e-20)
(0.69397757 -0.011377935 0)
(0.88810412 0.15256673 1.7058198e-25)
(0.75848556 0.10896435 -2.7786792e-21)
(0.64566585 0.068340715 0)
(0.34915791 -0.01603211 1.6202797e-21)
(0.32927502 -0.01620366 2.4664112e-23)
(0.30908232 -0.014672223 -3.4977387e-21)
(0.52488712 -0.024961571 1.0824166e-20)
(0.37517249 -0.018868384 -6.8744197e-21)
(0.48224084 -0.024513514 -1.5010054e-21)
(0.59284576 -0.018438615 -1.5244574e-20)
(0.51902859 0.03463914 1.6714582e-25)
(0.3423333 0.010939589 -4.7572288e-21)
(0.11521581 -0.00098788826 -4.3513733e-21)
(0.20860786 -0.0060292668 1.8833131e-22)
(0.21994883 -0.0043525527 5.4256824e-21)
(0.1948185 -0.0071143845 -4.9700482e-21)
(0.16606857 0.013351623 -5.1435155e-21)
(0.13711135 0.00041875901 -4.4155854e-21)
(0.12394033 -0.001638254 -5.7394295e-21)
(0.97620104 0.17047576 8.8862635e-21)
(1.131906 0.2130788 1.089199e-20)
(1.2831398 0.25370544 0)
(1.4176488 0.29020306 0)
(1.5244548 0.31720062 0)
(1.5906573 0.3287358 1.5938489e-21)
(1.6110047 0.3277834 0)
(1.5878944 0.30527829 0)
(1.482388 0.25537599 -4.9453604e-24)
(1.3317639 0.19446327 -1.7502262e-20)
(1.1641092 0.13296065 -3.7471018e-23)
(0.99934681 0.078092969 1.8801583e-20)
(0.85091021 0.034168274 1.9797804e-20)
(0.72894411 0.0042910719 0)
(0.62569423 -0.010048899 3.0270396e-20)
(0.83119603 0.12728894 0)
(0.70736843 0.086222601 0)
(0.59494655 0.050002508 -1.6676755e-25)
(0.17902823 -0.0073620744 4.5316914e-21)
(0.1624509 -0.0069245486 -1.0162913e-22)
(0.14664922 -0.005751638 4.7877166e-21)
(0.46489852 -0.014802371 1.2821863e-20)
(0.29068173 -0.0115108 6.9135235e-21)
(0.35636262 -0.013874312 9.7402941e-21)
(0.50914357 -0.01186301 -1.2768816e-20)
(0.45956811 0.022013776 0)
(0.26546912 0.0036631069 1.0384714e-20)
(0.04998143 0.00029227495 9.0598738e-21)
(0.11405719 -0.0022909505 0)
(0.10331203 -0.0029347592 4.96292e-21)
(0.091819606 -0.0034236488 -2.9278369e-21)
(1.007247 0.1617602 -8.8864475e-21)
(1.1638061 0.20361691 -1.8598397e-20)
(1.3101186 0.24453472 -2.1721273e-25)
(1.4363734 0.28345656 0)
(1.5338033 0.31544399 -2.4647338e-21)
(1.592456 0.33287516 -5.7981281e-22)
(1.6068512 0.33498609 0)
(1.5731403 0.31754223 3.0688717e-21)
(1.4595086 0.27190293 2.1946128e-24)
(1.3034552 0.21256425 -1.1010405e-20)
(1.1335661 0.1525686 0)
(0.96888445 0.097374758 -1.8822322e-20)
(0.8219469 0.051745199 1.5872005e-23)
(0.69882667 0.019282706 0)
(0.58738638 0.0016998007 -1.5092016e-20)
(0.85667148 0.11998241 0)
(0.72769708 0.080584008 0)
(0.61831267 0.046280622 -3.1445264e-25)
(0.080490603 -0.0036141913 -1.5022993e-21)
(0.069971004 -0.0034928293 0)
(0.061329395 -0.0030540845 -4.7853167e-21)
(0.34193705 -0.0071479574 -6.5554556e-22)
(0.1331952 -0.0038760793 -7.7334702e-21)
(0.27608055 -0.0070309176 -2.0531426e-20)
(0.45486073 -0.0031277477 1.3054912e-20)
(0.49776217 0.019289026 0)
(0.32974096 0.001626394 -5.6251558e-21)
(0.1150401 -0.0041768936 -1.8166469e-22)
(0.94936839 0.13161563 0)
(1.1064219 0.17313722 1.1190276e-20)
(1.2586982 0.21447007 0)
(1.3938052 0.25555974 -8.4724113e-21)
(1.5038863 0.29485021 2.4669239e-21)
(1.5800794 0.32487632 1.4392087e-21)
(1.6081679 0.33599185 -3.9884521e-27)
(1.6013738 0.33251096 -2.1203731e-21)
(1.5175201 0.30145604 -3.6703693e-21)
(1.3729997 0.24623969 1.8314801e-20)
(1.2030224 0.1860504 0)
(1.032129 0.12790853 0)
(0.87448372 0.076904418 1.6124834e-23)
(0.74085243 0.037824933 1.3929566e-20)
(0.62622663 0.013520739 0)
(0.50206298 0.0027468234 -1.3054776e-20)
(0.80438174 0.091823989 0)
(0.68270187 0.056852241 3.1395791e-25)
(0.5737491 0.028612985 0)
(0.26694241 -0.0015775576 1.1443586e-20)
(0.055564714 -0.002275257 1.6725321e-20)
(0.12362728 -0.0014114622 9.0584739e-22)
(0.33357465 0.00067449999 0)
(0.44469338 0.0080023597 -1.0368029e-25)
(0.25979414 -0.0035384771 -4.0405274e-26)
(0.055850793 -0.0014781673 -4.5380951e-21)
(0.98671324 0.11430326 5.5253549e-25)
(1.1440271 0.15444382 0)
(1.2913767 0.19454993 0)
(1.4178209 0.23515319 -2.853526e-21)
(1.5166592 0.27657656 -6.8043757e-21)
(1.5821801 0.31381296 -7.0803727e-21)
(1.6051155 0.33329844 -2.417055e-22)
(1.5916047 0.33297648 -6.2272452e-22)
(1.4991897 0.30482951 3.6695556e-21)