/*--------------------------------*- C++ -*----------------------------------*\
| =========                 |                                                 |
| \\      /  F ield         | OpenFOAM: The Open Source CFD Toolbox           |
|  \\    /   O peration     | Version:  2112                                  |
|   \\  /    A nd           | Website:  www.openfoam.com                      |
|    \\/     M anipulation  |                                                 |
\*---------------------------------------------------------------------------*/
FoamFile
{
    version     2.0;
    format      ascii;
    arch        "LSB;label=32;scalar=64";
    class       volScalarField;
    location    "3";
    object      p;
}
// * * * * * * * * * * * * * * * * * * * * * * * * * * * * * * * * * * * * * //

dimensions      [0 2 -2 0 0 0 0];

internalField   nonuniform List<scalar> 
16200
(
0.0063415768
-0.0023637773
-0.0016483383
-0.0040603818
-0.0062273532
-0.004930308
-0.0043192167
-0.0088443149
-0.0071175395
0.0016218037
-0.0036008193
-0.0096819465
-0.013588434
-0.0078489963
-0.0022184382
-0.0085739618
-0.017051959
-0.011008441
-0.0044921423
0.0015951193
-0.019134136
-0.0052204276
-0.020450797
-0.011569936
-0.0021335048
0.0054550634
-0.021874974
-0.0098706743
-0.014366023
-0.024029067
-0.0050400095
0.0039834385
0.011726246
-0.028657705
-0.018901764
-0.0060059106
-0.01401578
-0.02846777
-0.0019163521
0.0091853822
0.017667116
-0.031087193
-0.027093318
-0.013149035
-0.018509775
-0.00466689
-0.03134883
0.0070630683
0.017132615
0.025652023
-0.036377261
-0.025553357
-0.0084826783
-0.0152797
-0.00010441123
-0.029934355
-0.041197475
0.013110259
0.02452144
0.03300536
-0.03727688
-0.032598661
-0.017008424
-0.018286658
-0.0030381386
0.011330541
-0.031766268
-0.042242327
0.023311999
0.033480647
0.041985574
-0.044523727
-0.030154079
-0.011147986
-0.012344513
0.0038434323
0.018710873
-0.044423427
-0.029029567
0.031445116
0.042202955
0.050015095
-0.045170556
-0.036681736
-0.020199312
-0.017412193
0.00095816291
0.017113367
0.030799606
-0.046808664
-0.034781006
0.041936076
0.051372522
0.059213437
-0.050779407
-0.034594304
-0.012065638
-0.0082211611
0.009861499
0.026002385
0.039756555
-0.043942038
-0.040318488
-0.024189584
0.051180604
0.060549323
0.067188308
-0.053433936
-0.040276828
-0.021322987
0.0059234398
-0.01056182
0.023992998
0.039320098
0.051592858
-0.045793403
-0.034839924
-0.021491175
0.061187126
0.069246646
0.075827688
-0.050955083
-0.036557052
-0.012550496
0.016305824
-0.0011766856
0.033899211
0.049001246
0.061146784
-0.051506896
-0.036680487
-0.03658493
-0.015118304
0.070660862
0.078063385
0.083096803
-0.040270025
-0.033581309
-0.015494429
0.031216295
0.013610124
-0.002945554
0.048106187
0.06176407
0.072046332
-0.04289998
-0.034776178
-0.025250796
-0.016455032
0.079539133
0.085641444
0.090469946
-0.037625343
-0.027634499
-0.0091570125
0.04114866
0.022884502
0.0057033671
0.05775902
0.071360716
0.081378697
-0.033801887
-0.024109859
-0.029169041
-0.0058995924
0.088454714
0.093376812
0.096450487
-0.033272606
-0.023581852
-0.0086767664
0.055990976
0.037602038
0.017346795
0.00060586701
0.071534925
0.08299012
0.090728992
-0.030347196
-0.021735539
-0.013614891
-0.0067332595
0.095597877
0.099201938
0.10190495
-0.023893064
-0.018358239
-0.006018836
0.065363335
0.046720243
0.026701577
0.009657379
0.080634161
0.091682847
0.099095019
-0.016896247
-0.0097674483
-0.011141635
-0.0096078584
-0.0020973031
0.10321643
0.10524167
0.10600591
-0.01643094
-0.0096583806
-0.0022652135
0.079112137
0.059721159
0.038239418
0.018244306
0.0025568744
0.09287164
0.10167678
0.10629216
-0.0075034416
-0.00013701562
-0.0049859224
-0.00052429049
-0.0042145911
0.10807388
0.10876483
0.10894575
-0.0042608243
-0.0037127529
-0.00070274288
0.08807455
0.068304662
0.044900017
0.021520047
0.0030162639
0.10145553
0.10932804
0.11294674
0.0041164477
0.0086018166
-0.0047706242
0.0011712349
-0.0046436399
0.11370578
0.11251309
0.1108831
0.0043406513
0.0070873597
0.0055357471
0.098065221
0.07994614
0.057607039
0.033391568
0.011947632
-0.0014593963
0.11065925
0.11637817
0.11749497
0.013925082
0.017454587
-0.0062954526
0.0031678243
-0.0090288517
0.115807
0.11328666
0.11083152
0.019218118
0.0081732532
0.004832908
0.1063326
0.086544435
0.061134095
0.033485818
0.0090108019
-0.0074411989
0.11855563
0.12287401
0.12222485
0.023467913
0.020408136
-0.0057248904
0.011099025
0.0012381768
-0.01578647
0.11882622
0.11441861
0.11022604
0.027296787
0.010879183
0.010571009
0.11332379
0.097739226
0.075287457
0.047509196
0.020079494
-0.0022489946
-0.017159362
0.12240958
0.12548536
0.12321713
0.030924238
0.027365102
-0.014410586
0.012065148
-0.00076908633
-0.020899529
0.11784114
0.11213961
0.10699563
0.025251325
0.034158471
0.017128362
0.006911966
0.11830607
0.10011642
0.074836334
0.044071045
0.014069678
-0.011029593
-0.027367991
0.12869412
0.13043087
0.12588699
0.035424738
0.027476259
-0.015999735
0.017114626
-0.0052019113
-0.032507729
0.11805821
0.1102127
0.10356831
0.026942533
0.039262408
0.030403322
0.014497013
0.1233824
0.10961352
0.089255948
0.059545623
0.026889761
-0.003422428
-0.026398245
-0.037440673
0.12826185
0.12691732
0.12174852
0.042319398
0.032618924
-0.026499652
0.011777471
-0.0025125494
-0.037043849
0.11342818
0.10492336
0.09725748
0.038313395
0.048649088
0.027230539
0.0082025485
0.12379093
0.10635921
0.086383709
0.052991748
0.01797262
-0.014405805
-0.038619412
-0.050271128
0.1306504
0.12932787
0.12168834
0.043204557
0.027991493
-0.026805666
0.015244284
-0.012710977
-0.050207532
0.11068025
0.099914157
0.091312514
0.039852665
0.050646809
0.034193093
0.015313758
0.12663845
0.1160896
0.10094505
0.069004082
0.032861195
-0.0032181056
-0.032952465
-0.053036578
-0.059378012
0.12717909
0.12157227
0.11281122
0.045061196
0.032416508
-0.039641485
0.0059524898
-0.0094391824
-0.052986117
0.10235195
0.09190873
0.08229694
0.047224001
0.055001763
0.02909419
0.007821322
0.12235739
0.11148758
0.092103923
0.06013188
0.022308212
-0.015574459
-0.046868714
-0.066698607
-0.07263859
0.12392357
0.11925181
0.10947266
0.041633834
0.023335977
-0.037660756
0.0097813132
-0.021597096
-0.066318991
0.09662904
0.084021274
0.074292714
0.044207961
0.052340349
0.030224894
0.01471585
0.12064764
0.1151857
0.10012837
0.074053902
0.038054819
-0.0015646488
-0.037243964
-0.064997116
-0.078580917
-0.077762414
0.11731829
0.10833793
0.096900138
0.044524148
0.025539239
-0.05060138
-0.0017308877
-0.017723006
-0.065627432
0.085199044
0.073840408
0.063265983
0.048894633
0.045334545
0.026129789
0.0057596897
0.11041034
0.10491588
0.08946476
0.062860459
0.026508134
-0.013156693
-0.050320077
-0.078253306
-0.091032892
-0.089690703
0.10814442
0.10031062
0.089478811
0.049498834
0.035225289
0.014793106
-0.046557927
0.0016245494
-0.030209288
-0.077315078
0.076511207
0.063642429
0.053767852
0.04958816
0.04612592
0.029600494
0.016722913
0.10404744
0.1031215
0.093074721
0.072569057
0.041057272
0.0021499374
-0.037258567
-0.071563035
-0.09231803
-0.097528862
-0.089749786
0.098025825
0.087274832
0.074965214
0.042040361
0.033616291
0.015808333
-0.057817316
-0.0098806259
-0.025377556
-0.072843291
0.063191236
0.052156253
0.041795008
0.03772942
0.04421759
0.040585003
0.029083061
0.005316332
0.088508001
0.087998584
0.079157581
0.060063245
0.028542534
-0.0082198617
-0.047925857
-0.081864955
-0.10143064
-0.1062015
-0.098245104
0.083079582
0.074046605
0.063468459
0.03613936
0.023726349
0.0046483515
-0.051890867
-0.0068178729
-0.036518611
-0.081259194
0.051943668
0.040519385
0.031773566
0.031886805
0.042131674
0.037968715
0.01588138
0.077810213
0.080985206
0.077193837
0.064221611
0.040073587
0.0062875959
-0.032495055
-0.069561253
-0.09701392
-0.1089441
-0.10648628
-0.093307013
0.070237572
0.059961683
0.048704263
0.036369108
0.024109038
0.0062989956
-0.060474955
-0.017726441
-0.031256481
-0.074140523
0.038374133
0.028997877
0.020138681
0.028543728
0.037124208
0.037394572
0.034054274
0.011589356
0.057999984
0.062075361
0.060185143
0.049737634
0.027753001
-0.0020009759
-0.041407192
-0.075341007
-0.10075236
-0.11197255
-0.10971036
-0.097054752
0.050927376
0.042670623
0.033982221
0.027637175
0.013255484
-0.0049728648
-0.05368531
-0.014631774
-0.040336488
-0.078728815
0.025453504
0.0170905
0.010745645
0.033657505
0.034639187
0.029137296
0.0099398105
0.022628264
0.04429696
0.050269516
0.052660792
0.04819968
0.033524993
0.009876787
-0.024304366
-0.059381321
-0.090376621
-0.10844432
-0.11249486
-0.10457099
-0.089102085
0.03689834
0.028898418
0.020636847
0.026306711
0.013511319
-0.0031525079
-0.059661028
-0.024713654
-0.035603003
-0.070878081
0.013405599
0.0070027937
0.0009275708
0.033100415
0.028851218
0.031708608
-0.00048680166
0.020546226
0.021810974
0.028882135
0.033803163
0.032661313
0.022051706
0.00088652894
-0.029671646
-0.060857211
-0.088297719
-0.10464648
-0.10887671
-0.10218402
-0.088415339
0.014918677
0.0092774727
0.004389003
0.018656985
0.0041435244
-0.012794297
-0.053459214
-0.021419756
-0.043091635
-0.072334166
0.00021192519
-0.0037839339
-0.006688862
0.030327594
0.026300002
0.028481464
0.013857157
0.024438917
0.006900377
0.014113908
0.02119889
0.025464176
0.022344899
0.0088360092
-0.015230294
-0.043186556
-0.073448188
-0.095062844
-0.10527581
-0.10393351
-0.094089627
-0.080012977
0.0011672887
-0.0027013929
-0.0059812194
0.017119894
0.0039715078
-0.011518358
-0.057225947
-0.029811779
-0.038565981
-0.065316759
-0.0086752337
-0.010966551
-0.013225069
0.028003185
0.02913762
0.021475264
0.0079547394
0.022744945
-0.015792281
-0.0079536742
0.0015061517
0.0093628326
0.011015663
0.0038154293
-0.016386311
-0.041534903
-0.066432939
-0.085315327
-0.095118827
-0.095027557
-0.087480248
-0.076221541
-0.020426464
-0.021860951
-0.021568016
0.010426684
-0.0037878231
-0.019242199
-0.051784623
-0.027198527
-0.044322529
-0.064610523
-0.02039961
-0.019216564
-0.017841246
0.026793267
0.027597138
0.020906154
0.016427132
0.019419522
0.025428662
-0.029132769
-0.023000704
-0.013630713
-0.0034054072
0.0042737557
0.0053325306
-0.0069327006
-0.024543411
-0.049495231
-0.071325377
-0.085624178
-0.090651366
-0.087576861
-0.079369549
-0.069138179
-0.031350144
-0.030316865
-0.027717531
0.010766761
-0.0024870205
-0.017027312
-0.053903272
-0.033668572
-0.040658472
-0.058739873
-0.024914408
-0.022380767
-0.019988782
0.026983552
0.023444276
0.015188391
-0.04984083
-0.043209029
-0.031592628
-0.017572075
-0.005286558
-0.00010202814
-0.0061742608
-0.02092893
-0.039536111
-0.057277374
-0.070289527
-0.076178441
-0.075372953
-0.070334964
-0.063630785
-0.050695388
-0.04680477
-0.040500576
0.0033339039
-0.010653798
-0.024814225
-0.049586238
-0.030746192
-0.044705023
-0.056669203
-0.033499851
-0.026784064
-0.021152438
-0.060256639
-0.056493096
-0.046349892
-0.032134747
-0.016911734
-0.0051418775
-0.0010775286
-0.0067287348
-0.021785984
-0.041248988
-0.056835472
-0.066518551
-0.069965669
-0.068291684
-0.063791107
-0.057895983
-0.057466933
-0.050229043
-0.041436842
-0.050440332
-0.036904129
-0.041416494
-0.05209053
-0.032829627
-0.025126968
-0.018408942
-0.077169181
-0.073220865
-0.061226661
-0.043887381
-0.024182642
-0.0078356747
0.0031617135
-0.0017979401
-0.011240065
-0.024434418
-0.037924342
-0.047964997
-0.053370583
-0.054755944
-0.053840884
-0.051562648
-0.072779633
-0.06249395
-0.049803073
-0.046849723
-0.044786236
-0.049153396
-0.037015995
-0.025041312
-0.015535995
-0.083063734
-0.083531932
-0.074413365
-0.057738466
-0.037047039
-0.017598757
-0.00098028306
0.0047060951
0.003768121
-0.0078006002
-0.022149466
-0.034282447
-0.043055726
-0.047842445
-0.049459668
-0.048882535
-0.047345477
-0.073812244
-0.059870678
-0.044745657
-0.046821315
-0.046270673
-0.030774719
-0.018627332
-0.0082279041
-0.094557018
-0.095274728
-0.084414037
-0.064880251
-0.040675704
-0.016544718
0.0042259079
0.014750535
0.014811588
0.0080979681
-0.002433575
-0.014019211
-0.023831452
-0.031019977
-0.035869331
-0.038829066
-0.04083599
-0.083321709
-0.066766559
-0.047599389
-0.042500505
-0.029753962
-0.013695775
-0.0011294622
-0.093899851
-0.10082978
-0.095247054
-0.078511644
-0.054252544
-0.027421724
-0.0028618661
0.014178073
0.022858778
0.022769585
0.012854282
0.0010359621
-0.010407701
-0.020174667
-0.027423669
-0.032225986
-0.035348319
-0.038695609
-0.077076575
-0.057038288
-0.036724039
-0.018522604
-0.0030991429
0.009997224
-0.098589828
-0.10605359
-0.099388199
-0.080086394
-0.052336263
-0.021592495
0.0056003843
0.026813234
0.036934585
0.037481587
0.032226057
0.021111925
0.0091519728
-0.0020499699
-0.011673064
-0.019459233
-0.025803177
-0.03150417
-0.080054236
-0.056972448
-0.033554718
-0.012265478
0.0062101573
0.020319307
-0.090011545
-0.10448029
-0.10513496
-0.091372612
-0.066163994
-0.034945676
-0.003921985
0.022924708
0.04018101
0.048557113
0.045902658
0.035602288
0.023551971
0.011003356
-0.00030182089
-0.0095942714
-0.017038735
-0.024556632
-0.066931141
-0.041413997
-0.017607336
0.0027204372
0.019818606
0.034278087
-0.086898137
-0.10208492
-0.10238621
-0.086973377
-0.059129988
-0.024460575
0.0086107253
0.037300825
0.055985168
0.063649469
0.06283321
0.054933373
0.042466897
0.029029979
0.016138985
0.0045788347
-0.0053472885
-0.014531916
-0.062360594
-0.034836063
-0.0088817536
0.013474138
0.032495699
0.046707922
-0.070901193
-0.092231083
-0.10089896
-0.093242716
-0.070591837
-0.037927008
-0.0033631989
0.029726662
0.054923904
0.070439079
0.075246667
0.068190378
0.056387865
0.042889726
0.029142824
0.016668153
0.0058434739
-0.0052186094
-0.042990303
-0.014567484
0.010239925
0.030562938
0.047731191
0.06214465
-0.060443101
-0.081968819
-0.09038779
-0.082465348
-0.057713962
-0.023819191
0.012175115
0.045953174
0.07207195
0.086752607
0.089571681
0.086059211
0.074275449
0.059945587
0.045195634
0.0311507
0.018656671
0.0068430302
-0.031832733
-0.0024270523
0.023088329
0.044387311
0.062348477
0.075497318
-0.038847162
-0.065478523
-0.081492548
-0.081534028
-0.064869533
-0.035429786
0.00056408037
0.035975262
0.066778864
0.088294921
0.099523314
0.098420219
0.0871478
0.073552873
0.058715046
0.044350256
0.031242553
0.017687385
-0.0084026987
0.019834905
0.043218702
0.061973753
0.077931463
0.091120482
-0.023061935
-0.049734634
-0.065435905
-0.065759389
-0.048479007
-0.018949439
0.017247498
0.053388763
0.084534753
0.10487125
0.11314323
0.11141279
0.10306971
0.088948899
0.073509053
0.0581869
0.044246013
0.030768843
0.0073854368
0.035049304
0.05828355
0.077326736
0.093051867
0.10425481
0.0013632213
-0.028363814
-0.05035237
-0.058798314
-0.050836153
-0.02894038
0.0064448568
0.042300373
0.076440337
0.10221206
0.11772489
0.1230526
0.11493735
0.10124928
0.086584243
0.071464288
0.057183633
0.042267571
0.031276681
0.057135524
0.077926491
0.094113888
0.10781072
0.11884781
0.019280286
-0.010160307
-0.032905591
-0.040183072
-0.032069089
-0.011008689
0.022387623
0.058837788
0.092439528
0.11749109
0.13092649
0.13243187
0.1271639
0.11452334
0.09936091
0.08384537
0.069507263
0.055415836
0.048271256
0.073408912
0.093697739
0.10960061
0.12214791
0.13080197
0.043432531
0.013462573
-0.013351821
-0.029851551
-0.030399802
-0.016543271
0.012716701
0.045902069
0.081549522
0.11115123
0.13078596
0.13997463
0.13826626
0.12535438
0.11111827
0.096285227
0.081840984
0.066714639
0.071248295
0.094126779
0.11165695
0.1244926
0.13505764
0.14332248
0.060138335
0.030989419
0.0050608648
-0.012559753
-0.014502273
-0.0019995841
0.025635888
0.058861534
0.09366632
0.12270881
0.14127925
0.14736609
0.14406693
0.13521003
0.12124208
0.1064979
0.092701062
0.079015173
0.087440296
0.10995982
0.12686131
0.13889151
0.14755466
0.15324317
0.083588032
0.05398581
0.024171182
0.00061387492
-0.012561469
-0.0044853334
0.015831521
0.044744343
0.080285433
0.11219858
0.13626959
0.14945152
0.15308796
0.14460865
0.13082396
0.1172686
0.10360253
0.089367809
0.10897566
0.1285175
0.14210313
0.15098845
0.15771947
0.16278527
0.098067317
0.068528977
0.03943504
0.016830489
0.0027857466
0.0045430394
0.023434245
0.051529129
0.085887884
0.11763381
0.14175475
0.15396091
0.15412836
0.14891521
0.13776005
0.12467705
0.11229192
0.100015
0.12337892
0.1425036
0.15544898
0.1632508
0.16754858
0.16989418
0.11943802
0.089256515
0.05727605
0.02919227
0.0095327807
0.0054490267
0.016221223
0.037836646
0.069778168
0.10273219
0.13125163
0.15005081
0.15795815
0.15662067
0.14500618
0.13297424
0.12106557
0.10873863
0.1427715
0.15826969
0.16746049
0.17179387
0.1742939
0.17564643
0.13247703
0.10190675
0.067930861
0.035584339
0.013808282
0.0094874587
0.016385485
0.037033898
0.067849114
0.10112879
0.1301646
0.1495992
0.15594449
0.15382779
0.14764386
0.13708376
0.12698406
0.11700545
0.15552945
0.17010501
0.17805444
0.18083857
0.18068498
0.1796291
0.14805934
0.11938822
0.086215315
0.052256342
0.0257744
0.012456807
0.0086829482
0.023062437
0.049198987
0.081687246
0.11378448
0.13892455
0.15331022
0.15815466
0.15247591
0.1422113
0.13297032
0.12343397
0.16935789
0.18191811
0.18609336
0.18552151
0.18333214
0.18090625
0.15974028
0.1282277
0.091063471
0.053899322
0.022453891
0.0045377456
0.00032241023
0.013673111
0.040079196
0.072874578
0.10603368
0.13239376
0.14715664
0.15069055
0.14893545
0.14265679
0.13554355
0.12863451
0.1814851
0.19233324
0.19387825
0.19077169
0.18587875
0.18118839
0.17118226
0.14510887
0.11058872
0.072031579
0.037542655
0.010245076
-0.0036128439
0.00070524291
0.01997445
0.050189403
0.08409761
0.11516504
0.13735355
0.14891115
0.15084276
0.14453914
0.13839119
0.13244037
0.18813982
0.19594669
0.19661359
0.19098649
0.18405994
0.17769975
0.1765646
0.14780401
0.11050264
0.068648071
0.030570155
-0.0009517614
-0.017749454
-0.015283941
0.0032064573
0.034546332
0.070181053
0.1029956
0.12675601
0.13779497
0.14138422
0.1405872
0.1372712
0.13401598
0.19613917
0.20430859
0.20237865
0.19261698
0.18225196
0.17379343
0.18694567
0.16383847
0.13014601
0.088983723
0.046225029
0.0087139148
-0.016906963
-0.024852932
-0.01499697
0.0097204997
0.044257024
0.079752476
0.1096089
0.12913013
0.13905151
0.13905865
0.13644062
0.13474783
0.19831651
0.200185
0.19618081
0.18688812
0.17585598
0.1655651
0.18627292
0.16043148
0.12492714
0.081600179
0.037050605
-0.0031790778
-0.031009466
-0.042156902
-0.034092926
-0.0095396574
0.026018351
0.063434281
0.094973041
0.11513259
0.12519756
0.13018168
0.13158192
0.13242595
0.19951531
0.20292468
0.19776749
0.18469435
0.16973978
0.15786538
0.19330665
0.17392932
0.14323344
0.10176737
0.056305208
0.011578455
-0.024416095
-0.047062509
-0.049327038
-0.03252752
-0.0018419863
0.036003438
0.071891933
0.099714608
0.11743412
0.12503507
0.12704116
0.12973295
0.1990496
0.1951633
0.1854477
0.17280728
0.158789
0.14522135
0.1847946
0.16491758
0.13308015
0.090998688
0.044377726
-0.0016458783
-0.039339115
-0.062811628
-0.066504929
-0.051010281
-0.020604197
0.01772715
0.055238621
0.083749311
0.10118988
0.11206639
0.11864688
0.12356252
0.19227618
0.18988519
0.1808238
0.1661385
0.14840329
0.13424076
0.18549092
0.17182365
0.14604836
0.1088346
0.063100124
0.015917767
-0.02664707
-0.059649566
-0.075148328
-0.070303821
-0.046572355
-0.01100555
0.028180692
0.062639029
0.087793403
0.10305398
0.11056776
0.11763277
0.18721566
0.17827234
0.16451369
0.14906717
0.13334762
0.1179585
0.16971851
0.15713541
0.13219394
0.09548112
0.050416533
0.0022881308
-0.041199302
-0.074885283
-0.090797235
-0.08581771
-0.062691605
-0.027502217
0.011399745
0.046442382
0.070902173
0.087440343
0.099148837
0.10797457
0.17113735
0.16438722
0.15247902
0.1369934
0.11909442
0.10449621
0.16290065
0.15649506
0.13884197
0.10894868
0.068355984
0.021221591
-0.025079856
-0.065452244
-0.090935707
-0.097885868
-0.084324182
-0.054132163
-0.016081591
0.021926605
0.052874972
0.074767437
0.088018915
0.099410932
0.15980059
0.14908424
0.13341271
0.11713125
0.1014551
0.086221329
0.14006588
0.1359251
0.12073659
0.092983685
0.054395426
0.0097318091
-0.036569291
-0.077000312
-0.10393714
-0.11035258
-0.096301352
-0.066743883
-0.029528086
0.0073783879
0.037215518
0.058549206
0.074526447
0.086947322
0.13599668
0.12639567
0.11388603
0.099973669
0.084459549
0.071845151
0.12611352
0.12729746
0.11938283
0.10006017
0.068493228
0.027250817
-0.017767587
-0.062028421
-0.096378703
-0.11374687
-0.11079348
-0.088620697
-0.054440994
-0.01705399
0.016768724
0.04316979
0.061256449
0.076302376
0.11887121
0.10778822
0.093945619
0.079917631
0.066615223
0.053973093
0.096990013
0.10099775
0.096838634
0.081990229
0.052903936
0.017026181
-0.02694068
-0.068202177
-0.10271992
-0.12050827
-0.11704653
-0.095441554
-0.062681691
-0.027280542
0.0044548768
0.028601544
0.047288303
0.062227367
0.088504422
0.078741167
0.069033507
0.059142821
0.048784092
0.040691216
0.077081249
0.084789912
0.087195253
0.080280625
0.061216556
0.03127583
-0.0080453441
-0.049450673
-0.088411393
-0.11450084
-0.1224218
-0.10985828
-0.082442567
-0.048495036
-0.015488595
0.012289051
0.033241879
0.050653245
0.067828582
0.059019123
0.050428757
0.041909638
0.033838034
0.026301207
0.043372037
0.05434386
0.061430099
0.05959583
0.046082244
0.022461417
-0.013972888
-0.0497608
-0.085884391
-0.1123503
-0.11970123
-0.10849706
-0.083343071
-0.052376163
-0.022838188
0.0015223474
0.020758108
0.036554737
0.033270636
0.026521244
0.022828428
0.020334515
0.0178657
0.016240894
0.020297942
0.031921345
0.043435025
0.049853561
0.04518004
0.031305041
0.003051171
-0.030082117
-0.066935601
-0.097077227
-0.11434081
-0.11340165
-0.0953897
-0.068099882
-0.039227827
-0.013359973
0.0076920618
0.025499795
0.011822621
0.0082708094
0.0086638726
0.0092190866
0.008907271
0.0083282612
-0.014975665
-0.00074804538
0.01560788
0.028207846
0.030553738
0.023092248
0.00051237917
-0.02621854
-0.057074108
-0.085292669
-0.10168941
-0.10169185
-0.087029551
-0.063973726
-0.039933616
-0.018633732
-0.0012663001
0.013323908
-0.022979914
-0.022672071
-0.016382003
-0.0089253839
-0.0021115322
0.0034359616
-0.036992402
-0.025028332
-0.0081831802
0.0091792077
0.021067777
0.023506477
0.01143002
-0.0086072444
-0.036880173
-0.064684033
-0.086388341
-0.095869345
-0.08948707
-0.072029712
-0.050431524
-0.02962876
-0.011431159
0.0042617365
-0.040292918
-0.033832435
-0.02241632
-0.011693057
-0.0031521116
0.003852216
-0.069095503
-0.05523692
-0.033507275
-0.010131702
0.007652419
0.016118718
0.012815938
-0.0048599283
-0.02296406
-0.045937287
-0.065664951
-0.074615464
-0.071493853
-0.059052442
-0.04317508
-0.028287569
-0.015221982
-0.0039339259
-0.070581805
-0.059251504
-0.04101146
-0.023075016
-0.0072358171
0.0048692294
-0.085667636
-0.076914846
-0.057732872
-0.033831888
-0.010280003
0.0081459258
0.017241788
0.0098103438
-0.0050493206
-0.025352051
-0.044703401
-0.059447496
-0.064050449
-0.058251406
-0.046514353
-0.033625714
-0.020632211
-0.0093643063
-0.079530831
-0.060035079
-0.036573242
-0.016416308
-0.00039170303
0.012696762
-0.11013845
-0.10098577
-0.078394833
-0.049257725
-0.019098573
0.0041864196
0.020250727
0.016380902
0.010880803
-0.0025617189
-0.019167657
-0.03230084
-0.038665768
-0.037524342
-0.031901636
-0.024950224
-0.018128879
-0.011921453
-0.10074711
-0.075663431
-0.045769187
-0.019059369
0.0034125983
0.020077026
-0.11666789
-0.11651984
-0.099002609
-0.071341181
-0.040806643
-0.012484678
0.012577291
0.023631258
0.027712239
0.016020986
0.0023735541
-0.011810257
-0.023188349
-0.028169546
-0.027296789
-0.023263004
-0.017766562
-0.013051592
-0.096677617
-0.063784102
-0.030724745
-0.0039185436
0.01685282
0.033582202
-0.12804037
-0.12901507
-0.1091978
-0.078202882
-0.043753009
-0.010128008
0.019434188
0.036369223
0.041695226
0.039198264
0.029612185
0.017194228
0.005918704
-0.0020388433
-0.0063914071
-0.0084144062
-0.0091822986
-0.0092709213
-0.10450611
-0.06699495
-0.029261041
0.0022733776
0.027626423
0.045706174
-0.11989193
-0.13364737
-0.12397864
-0.097032367
-0.062605013
-0.026883956
0.0061425064
0.032213632
0.048917744
0.054623038
0.048286834
0.038189782
0.025748085
0.01403305
0.0052719903
-6.0609064e-05
-0.0026587506
-0.0053521386
-0.085906706
-0.043820736
-0.0061605918
0.022796655
0.044969858
0.063010478
-0.11604142
-0.13103442
-0.12092142
-0.092742982
-0.056356906
-0.018165851
0.017183775
0.048041929
0.06507956
0.074853266
0.074825439
0.065957441
0.053807646
0.040992581
0.029240338
0.019139592
0.011069139
0.0041533619
-0.079494359
-0.035643822
0.0045936576
0.035667164
0.060383162
0.077907537
-0.093303138
-0.12138106
-0.12449103
-0.10455957
-0.071481524
-0.033801296
0.0039107653
0.03947327
0.066421394
0.085065674
0.088617691
0.083880053
0.073502894
0.059416852
0.045237563
0.032806968
0.023004348
0.013265888
-0.050528142
-0.0059301973
0.030855508
0.057939629
0.079397341
0.09692793
-0.075986192
-0.10438245
-0.10939354
-0.091086835
-0.058268917
-0.019252078
0.021064106
0.057926535
0.087221877
0.10511553
0.11295804
0.11029504
0.099646333
0.085107858
0.069368195
0.053786067
0.03997152
0.027340385
-0.033704433
0.010880476
0.046582276
0.074462974
0.096961918
0.1128407
-0.045621592
-0.082176948
-0.099229469
-0.092427617
-0.06728903
-0.031611036
0.0081133545
0.04792555
0.08320311
0.10902282
0.12456224
0.1243402
0.11708237
0.1038239
0.087225018
0.070558544
0.055645218
0.040128166
-0.00076067094
0.040362277
0.072368722
0.096372989
0.11593216
0.13180076
-0.022090864
-0.057602377
-0.075955711
-0.072401688
-0.049399577
-0.013394735
0.027611423
0.069025678
0.10436119
0.13011183
0.14454442
0.14929123
0.14130841
0.1271807
0.10989793
0.09139916
0.074077325
0.057331917
0.02101799
0.059353875
0.090275337
0.11431712
0.13372551
0.14744369
0.0097158955
-0.030054894
-0.056839065
-0.063799225
-0.050220106
-0.021500956
0.016183429
0.057092503
0.096239463
0.12969306
0.15297593
0.16090346
0.15567172
0.14442342
0.12788039
0.10933546
0.091468042
0.072275896
0.051430683
0.086480843
0.11391766
0.13446277
0.15154398
0.16524151
0.033068521
-0.0054164657
-0.032645387
-0.042048304
-0.03071073
-0.0027889684
0.03558833
0.078600147
0.12047145
0.15197416
0.17156295
0.17980334
0.1778667
0.16508987
0.14796371
0.12858578
0.10976701
0.090759185
0.071928325
0.10528093
0.13181062
0.15211367
0.16829963
0.17976669
0.0621792
0.022865953
-0.0095024916
-0.027158506
-0.026108681
-0.0069820052
0.025191224
0.066224592
0.1088796
0.14679163
0.17354956
0.1911701
0.18967376
0.17946517
0.16462141
0.14608941
0.12714058
0.106347
0.099008701
0.12937846
0.15272679
0.17000295
0.18433101
0.19564907
0.081137022
0.043497965
0.010726434
-0.0081000953
-0.0078358236
0.010763506
0.042849997
0.084891574
0.12932766
0.16978166
0.19220256
0.20463241
0.20699784
0.19745786
0.18149611
0.1627328
0.14403242
0.1245443
0.11668931
0.14633813
0.16930983
0.18631921
0.19931024
0.20847293
0.10763873
0.070331501
0.034964791
0.009187345
-0.00045930621
0.0071185324
0.033534781
0.070712281
0.11441329
0.15705406
0.18824075
0.20981048
0.21909629
0.20901574
0.19561761
0.17854123
0.1600322
0.13949672
0.14099249
0.16771845
0.18770961
0.20184721
0.2131373
0.22186935
0.12162317
0.085021929
0.050504613
0.024932414
0.014229816
0.021212005
0.046200203
0.083932484
0.12909879
0.17331944
0.20628829
0.22223333
0.22793907
0.22360654
0.20922087
0.19193882
0.17452447
0.15611269
0.15496665
0.18226676
0.20243497
0.21629501
0.22591515
0.232454
0.14658434
0.11046311
0.073202537
0.041425773
0.022746571
0.018904811
0.036989819
0.068015144
0.11028217
0.15579394
0.19539017
0.2220504
0.23640622
0.23419029
0.22007062
0.20511114
0.18817965
0.16947814
0.17776372
0.20182408
0.21853564
0.22932566
0.23705174
0.24263437
0.15647255
0.11936494
0.082594906
0.052464701
0.034124037
0.027358016
0.042515699
0.073530803
0.11624886
0.16381305
0.20645455
0.23198125
0.2394292
0.23977961
0.2299493
0.21474598
0.19949377
0.18349427
0.18870341
0.21361124
0.23096089
0.24152993
0.24727607
0.2503741
0.1803279
0.14239756
0.10244806
0.066801842
0.037686563
0.028462198
0.035040068
0.057266401
0.094772165
0.14052492
0.18632289
0.22208615
0.24157903
0.24915227
0.23794389
0.22431074
0.21011462
0.19442353
0.21061731
0.23187486
0.24504854
0.25160058
0.25514158
0.25673517
0.18851036
0.15017681
0.1093804
0.070833694
0.04005985
0.028052602
0.03347119
0.052840875
0.090094098
0.13740924
0.18629991
0.22551865
0.241318
0.24456462
0.24226308
0.22996373
0.21768893
0.20495153
0.21983045
0.24174811
0.25492801
0.26083021
0.2620099
0.26137047
0.20741995
0.16932006
0.12751897
0.085039895
0.052444872
0.032330425
0.026225195
0.036990117
0.065872501
0.10871773
0.15791611
0.20344472
0.23434266
0.2484226
0.2491247
0.23534868
0.22451101
0.21273154
0.23801833
0.25775603
0.26627854
0.26743158
0.26540508
0.26261978
0.21624694
0.17471725
0.12816424
0.083632199
0.046421313
0.02173844
0.012976527
0.02257139
0.05143604
0.095294868
0.14695801
0.19648486
0.22902375
0.23920275
0.24202373
0.23621415
0.22758371
0.21906492
0.24839066
0.26758667
0.27421627
0.27299596
0.26841207
0.26297691
0.23203322
0.19389188
0.14841321
0.10241571
0.061244858
0.029109896
0.0096177135
0.0087893831
0.026533973
0.062629994
0.11138069
0.16387566
0.20779681
0.2341415
0.24434642
0.23794211
0.23020562
0.22346377
0.25993824
0.27552043
0.28021996
0.27467972
0.26631292
0.25829412
0.23532909
0.19263207
0.14430796
0.095190871
0.050256583
0.014485308
-0.0096409027
-0.014573517
0.0014987188
0.038494752
0.090574237
0.14724226
0.19514357
0.21883686
0.2290455
0.23162915
0.22818177
0.22472908
0.26768211
0.28503489
0.28766212
0.27685619
0.26425577
0.25328666
0.25104455
0.21352786
0.16642354
0.11612971
0.06734688
0.025148145
-0.0065893536
-0.023106329
-0.019284844
0.0052246213
0.04999603
0.1065092
0.16137536
0.20229352
0.22395186
0.22957795
0.22590936
0.22493969
0.27424712
0.28300528
0.28180775
0.2706102
0.2558522
0.24234882
0.25009006
0.20841663
0.15817798
0.10487244
0.054577115
0.0089418392
-0.026252186
-0.047880664
-0.048909863
-0.025221784
0.02122682
0.081660753
0.14111071
0.1835516
0.20343863
0.21468176
0.21831199
0.22065465
0.2767462
0.28789338
0.28479872
0.26863024
0.2481048
0.23250774
0.26349635
0.22936744
0.1822563
0.12845676
0.074903178
0.025935647
-0.016052521
-0.047854374
-0.063454796
-0.054427344
-0.019517081
0.035948095
0.09908883
0.15342687
0.18937423
0.20717091
0.21103216
0.21591398
0.27898133
0.27944736
0.26875208
0.25241895
0.23336994
0.21583706
0.25574485
0.21903527
0.16989971
0.11560642
0.061235673
0.010878996
-0.034594143
-0.070777912
-0.091148649
-0.084900644
-0.049702142
0.0077924631