/*--------------------------------*- C++ -*----------------------------------*\
| =========                 |                                                 |
| \\      /  F ield         | OpenFOAM: The Open Source CFD Toolbox           |
|  \\    /   O peration     | Version:  2112                                  |
|   \\  /    A nd           | Website:  www.openfoam.com                      |
|    \\/     M anipulation  |                                                 |
\*---------------------------------------------------------------------------*/
FoamFile
{
    version     2.0;
    format      ascii;
    arch        "LSB;label=32;scalar=64";
    class       volVectorField;
    location    "5";
    object      U;
}
// * * * * * * * * * * * * * * * * * * * * * * * * * * * * * * * * * * * * * //

dimensions      [0 1 -1 0 0 0 0];

internalField   nonuniform List<vector> 
16200
(
(0.1077787 -0.016328877 9.0946545e-28)
(0.15852039 -0.010082433 0)
(0.33477772 0.0053574728 -3.5351397e-21)
(0.070454683 0.00024421552 0)
(0.39613722 0.014251482 2.0077886e-21)
(0.42119021 0.024772561 3.3369313e-21)
(0.14684601 0.00031503474 -3.6210809e-21)
(0.52461407 0.02483703 -2.952418e-21)
(0.30567949 0.0060029828 0)
(0.59281668 0.046376445 -7.8002798e-23)
(0.065067141 0.0005931955 3.9926548e-21)
(0.59701374 0.044240088 3.4707782e-21)
(0.55961904 0.023523094 0)
(0.37178275 0.0050281119 0)
(0.13980767 -0.0022551031 1.5593907e-22)
(0.68740452 0.058283517 -1.1737488e-21)
(0.64889422 0.033678663 0)
(0.4949932 0.011571218 0)
(0.29307981 -0.00062458843 5.3706552e-21)
(0.066498113 -0.00058442509 0)
(0.6973153 0.050614619 0)
(0.75264147 0.082285385 0)
(0.67577806 0.026011349 7.2282286e-23)
(0.53973465 0.006444811 6.7528022e-21)
(0.36017363 -0.0035412933 -5.1579881e-21)
(0.14034156 -0.0044818981 0)
(0.75948249 0.060148829 0)
(0.80490114 0.090560433 1.3564178e-21)
(0.63042837 0.0095828948 0)
(0.75917646 0.032195183 -9.1046685e-21)
(0.48399172 -0.0018433955 -7.2464562e-21)
(0.28913918 -0.0064717627 0)
(0.072173103 -0.0017949133 3.5258527e-21)
(0.78003739 0.050666171 1.2576578e-20)
(0.80667645 0.080244298 -1.761514e-21)
(0.8695588 0.1164872 0)
(0.66883021 -0.0015965401 8.3841735e-21)
(0.78764066 0.014506434 0)
(0.53341309 -0.009294165 0)
(0.35784809 -0.011246383 4.095304e-21)
(0.14680587 -0.0062913507 -5.9127109e-21)
(0.85290879 0.0628846 0)
(0.86034496 0.082463485 0)
(0.92074601 0.11931248 0)
(0.74911647 -0.0050763846 -1.0455261e-20)
(0.62768458 -0.011957386 -1.6315398e-20)
(0.87695548 0.0098289851 0)
(0.48236664 -0.014154538 0)
(0.29279803 -0.01129014 -4.1692264e-21)
(0.080836921 -0.0027480857 2.4166796e-21)
(0.89886731 0.056205186 -8.6260437e-22)
(0.91659802 0.10049032 0)
(0.99929561 0.14938348 0)
(0.79019732 -0.023139113 8.1123358e-22)
(0.67198989 -0.024959639 8.4096332e-21)
(0.91538324 -0.014174366 -8.7136887e-22)
(0.91023833 0.038457814 8.2548506e-21)
(0.53645625 -0.022655237 -3.9187165e-21)
(0.36303007 -0.017135789 1.4019498e-21)
(0.1576922 -0.0072379899 -6.1540205e-24)
(0.96715557 0.071420279 -1.063643e-20)
(0.97078973 0.095804108 9.0327869e-22)
(1.0567391 0.14406648 0)
(0.87879532 -0.036588105 -1.1480164e-20)
(0.75635722 -0.035153655 1.8049218e-20)
(0.63540793 -0.030397469 5.2670954e-21)
(1.0285142 -0.029518491 2.6122744e-20)
(1.0100322 0.031426806 -1.5289772e-22)
(0.48877538 -0.023946371 3.9724204e-21)
(0.30261361 -0.014669716 -1.4119521e-21)
(0.091228049 -0.0033378257 0)
(1.0289901 0.058914888 0)
(1.0500682 0.1176973 0)
(1.1469446 0.17616806 0)
(0.92773009 -0.061163849 2.2381877e-20)
(0.80350259 -0.053552271 -9.8463704e-21)
(0.68450822 -0.043337421 -5.3150391e-21)
(1.0586994 0.0013855845 -6.4167813e-21)
(1.0765352 -0.064587809 -1.3052283e-20)
(0.54705385 -0.032441586 0)
(0.37431661 -0.02080608 2.3689004e-21)
(0.1713467 -0.0073088919 -4.5596228e-21)
(1.1107448 0.071868563 1.8213967e-20)
(1.1209926 0.10606023 -1.7742581e-21)
(1.2109366 0.16106461 0)
(1.0243137 -0.079097996 -1.2807526e-20)
(0.89304332 -0.071534516 -9.6544758e-21)
(0.77393476 -0.058341625 -4.8501382e-21)
(0.65095143 -0.043922331 1.2463222e-21)
(1.1771988 0.0090075323 1.9134086e-20)
(1.1698345 -0.081035966 0)
(0.50155446 -0.030538103 -1.8706701e-21)
(0.31713272 -0.016355799 -2.3852867e-21)
(0.10213323 -0.0035324706 1.1262514e-20)
(1.1894356 0.049536191 -1.3051405e-20)
(1.2032 0.12887801 0)
(1.2966221 0.19345819 0)
(1.0816575 -0.1079212 2.4568213e-20)
(0.94827107 -0.094098877 -7.7340043e-21)
(0.82616483 -0.074952869 7.3981597e-21)
(0.70427987 -0.055516198 -2.3529122e-21)
(1.2510249 -0.030944182 -2.5358087e-20)
(1.2432965 -0.072938194 -1.8197978e-20)
(1.2122888 -0.11442842 -1.9097709e-20)
(0.56328457 -0.038322824 1.875833e-21)
(0.39010925 -0.022230315 0)
(0.18610889 -0.0066639357 -6.6597619e-21)
(1.2763412 0.072169445 0)
(1.2753935 0.11381105 0)
(1.360723 0.17070068 0)
(1.0453458 -0.11641139 -9.971966e-21)
(1.1811891 -0.13003752 2.8570914e-20)
(0.91931882 -0.096424962 6.6673973e-21)
(0.79982883 -0.073446712 -2.5113303e-21)
(0.67217426 -0.052162233 1.1066821e-21)
(1.3593487 -0.029439872 1.403353e-20)
(1.330253 -0.1041319 2.1499878e-20)
(1.3107401 -0.13161664 0)
(0.519052 -0.033884537 0)
(0.3347191 -0.016379399 9.0704377e-21)
(0.11244081 -0.0033635862 0)
(1.3585479 0.051573353 0)
(1.3565796 0.13760386 -1.0813404e-20)
(1.436014 0.20135302 0)
(1.106629 -0.1399188 0)
(1.2355064 -0.15744567 -1.3661612e-20)
(0.97862746 -0.114941 0)
(0.85566249 -0.08719405 6.1636836e-23)
(0.7289667 -0.061798345 1.4649176e-22)
(1.3776678 0.013292641 0)
(1.4287173 -0.072897455 -1.5546434e-20)
(1.4119163 -0.1120959 0)
(1.3629445 -0.16452648 -1.2755828e-20)
(0.58333343 -0.040493154 -9.047719e-21)
(0.40856239 -0.021588051 -9.1380288e-21)
(0.20048489 -0.0054655063 4.8475524e-23)
(1.4245529 0.077611837 8.5491492e-21)
(1.427013 0.1147695 1.1421527e-20)
(1.4925394 0.16993475 -1.9852437e-22)
(1.0774381 -0.14046246 0)
(1.2065199 -0.16546388 0)
(1.3358537 -0.18114787 1.3364039e-20)
(0.95363713 -0.11068134 -2.0297919e-21)
(0.83055865 -0.081227367 -5.9530897e-21)
(0.696869 -0.055519835 0)
(1.4746821 0.014101118 1.888102e-20)
(1.5089306 -0.069171294 0)
(1.4826307 -0.15413284 0)
(1.4617915 -0.18350907 9.1734533e-21)
(0.53946512 -0.034155955 9.076202e-21)
(0.35347458 -0.014947596 -4.819563e-23)
(0.12117511 -0.0028657754 0)
(1.4871583 0.055502515 -8.6364078e-21)
(1.4884278 0.13679855 2.0640548e-22)
(1.536247 0.19737464 0)
(1.1425376 -0.15929102 7.4243339e-22)
(1.269576 -0.18925737 3.6047286e-22)
(1.394806 -0.21068848 -6.2846834e-21)
(1.0155998 -0.12530887 1.9717749e-21)
(0.88924334 -0.091998306 1.4444286e-20)
(0.75644037 -0.063017428 0)
(1.5240703 -0.024093023 -8.5447197e-21)
(1.5637163 -0.10826565 0)
(1.5518947 -0.15334391 0)
(1.5114845 -0.21944788 -9.591611e-21)
(0.60547491 -0.039321409 2.0131557e-22)
(0.42785664 -0.019158475 -1.5856447e-20)
(0.21314872 -0.0038590651 1.7411913e-20)
(1.5351689 0.068670724 1.0295611e-20)
(1.5398175 0.10981471 0)
(1.5700999 0.16119349 -2.3821753e-22)
(1.1177629 -0.15261041 -7.3908443e-22)
(1.2431637 -0.18750898 0)
(1.3665336 -0.21578224 1.1707962e-20)
(1.4766485 -0.23265121 -1.0986881e-21)
(0.99228469 -0.11640812 0)
(0.86368707 -0.082857455 2.8382079e-21)
(0.72321107 -0.054537983 -2.0077542e-22)
(1.5705295 -0.012599375 -5.9238718e-21)
(1.5965373 -0.10005432 0)
(1.6004767 -0.19139484 -6.8695625e-21)
(1.5726439 -0.23445775 4.0463177e-21)
(0.56099399 -0.031635239 0)
(0.37152246 -0.012279283 3.3749088e-20)
(0.12753205 -0.0021310833 -1.7341133e-20)
(1.5763474 0.035023059 -2.3799977e-21)
(1.5696444 0.12662628 2.4034344e-22)
(1.587853 0.19075671 0)
(1.1855489 -0.16772015 0)
(1.311224 -0.20690388 -2.5988186e-21)
(1.4294515 -0.23908129 -4.8237495e-21)
(1.5281538 -0.25905599 0)
(1.0566358 -0.12766285 2.8321206e-22)
(0.92478485 -0.09073274 -1.1277021e-20)
(0.78486409 -0.059784074 0)
(1.6013092 -0.050069929 -2.4651214e-21)
(1.6140512 -0.13621797 -2.195059e-21)
(1.5947179 -0.2262412 2.1399476e-21)
(1.6112804 -0.18085138 1.0784631e-20)
(1.5946958 -0.26439407 -4.9172356e-21)
(0.62796531 -0.035134215 0)
(0.44619572 -0.015222402 -1.7942732e-20)
(0.22301342 -0.001940953 0)
(1.5954512 0.050205327 -6.4894473e-21)
(1.5954051 0.094740717 0)
(1.5999904 0.15208753 8.7157419e-22)
(1.1632905 -0.15641156 -2.8368173e-22)
(1.288362 -0.19844664 2.5996114e-21)
(1.4068689 -0.23575699 -1.1282341e-21)
(1.5048176 -0.26234438 2.242553e-22)
(1.5845966 -0.27214473 0)
(1.0333859 -0.11528409 -1.4078094e-20)
(0.8974863 -0.079093025 0)
(0.74951204 -0.049579822 0)
(1.6090654 -0.035311045 2.3641233e-21)
(1.6124671 -0.12071356 0)
(1.6147998 -0.24215592 -2.0616391e-21)
(1.6143671 -0.20820526 -2.7344521e-21)
(1.6110403 -0.26862869 -4.8204537e-21)
(0.58180124 -0.026592532 2.0395216e-20)
(0.38713698 -0.0086464867 0)
(0.13097999 -0.0011955382 0)
(1.6081591 0.014600399 -8.7704313e-22)
(1.6017193 0.11544814 -2.1440657e-22)
(1.5948855 0.18355456 -8.3869385e-22)
(1.2335226 -0.16839905 0)
(1.3590495 -0.21393531 8.5859894e-21)
(1.4688431 -0.25271288 5.0245742e-21)
(1.5530716 -0.27922213 -5.9733941e-23)
(1.607439 -0.28783487 3.2384429e-21)
(1.1001162 -0.12333736 1.3855666e-20)
(0.96060868 -0.0840477 0)
(0.81250176 -0.052380822 -1.5868615e-22)
(1.6124733 -0.071406405 7.2121048e-22)
(1.6049671 -0.15008039 8.9760406e-22)
(1.6124101 -0.24150239 1.3346284e-22)
(1.6022994 -0.1932409 -5.4635873e-22)
(1.6165791 -0.28137078 8.3181411e-22)
(0.64902034 -0.028205271 -4.2420672e-20)
(0.4618743 -0.010054641 2.2761874e-20)
(0.22919265 0.00020188039 0)
(1.6055326 0.036372644 -2.7475605e-21)
(1.6048121 0.082073119 -3.4999307e-23)
(1.5907743 0.1455465 0)
(1.2115863 -0.15276364 0)
(1.338171 -0.19949181 -8.5457648e-21)
(1.4498403 -0.24220144 -3.8337945e-21)
(1.5355033 -0.27354876 -5.1302745e-23)
(1.5989015 -0.2895254 -1.042039e-21)
(1.6138159 -0.29085118 6.1173099e-21)
(1.0754022 -0.10801075 1.9254405e-20)
(0.93049912 -0.070240126 -2.1385552e-20)
(0.77402477 -0.040875629 0)
(1.5990258 -0.054297524 -7.1525255e-22)
(1.5768076 -0.13039612 -7.1849537e-21)
(1.6091059 -0.26006744 1.2950752e-21)
(1.5846565 -0.20583056 7.850574e-22)
(1.607991 -0.28082643 0)
(0.60001722 -0.019310537 2.2101815e-20)
(0.39884742 -0.004273235 -4.6698716e-20)
(0.13125602 -0.00011406429 0)
(1.5984747 0.00073018796 3.6824962e-21)
(1.5908412 0.10736404 0)
(1.5648286 0.17831807 0)
(1.2822839 -0.15915299 0)
(1.4054967 -0.20617224 -1.3923997e-20)
(1.5050802 -0.24710077 8.7541707e-21)
(1.5759932 -0.27746578 -3.6613514e-21)
(1.6136218 -0.29240585 -1.9784024e-21)
(1.6158995 -0.29431662 1.7111043e-21)
(1.1434462 -0.11240161 -1.9224869e-20)
(0.99503744 -0.072016249 2.1435149e-20)
(0.83764185 -0.041029206 0)
(1.5789847 -0.083940574 3.6839934e-21)
(1.5455313 -0.14997061 7.7666329e-21)
(1.5795891 -0.25381704 3.462942e-21)
(1.5453372 -0.18530615 -9.6831389e-21)
(1.5681337 -0.23439902 -6.8207671e-21)
(1.5998447 -0.28609656 7.230227e-23)
(0.66684033 -0.018804249 0)
(0.47333555 -0.0038838987 2.3913776e-20)
(0.23107923 0.0022284289 0)
(1.562663 0.018204753 0)
(1.5719293 0.091606153 -1.9959542e-21)
(1.5355986 0.1495404 -2.1522956e-21)
(1.256515 -0.13766838 0)
(1.38179 -0.18366307 1.3887285e-20)
(1.4848744 -0.22636281 2.1211189e-21)
(1.5605411 -0.26108176 3.6225183e-21)
(1.6091359 -0.2861921 0)
(1.6141834 -0.29447084 -6.8316862e-21)
(1.6021595 -0.29295047 0)
(1.1146388 -0.093803938 8.8563139e-23)
(0.96081062 -0.056488712 2.5369645e-20)
(0.79504806 -0.028720455 2.5813435e-20)
(1.5336364 -0.063499012 5.865677e-21)
(1.4928956 -0.13090878 5.5514967e-21)
(1.5523645 -0.26796677 1.8978583e-21)
(1.5046497 -0.19671814 1.4548426e-20)
(1.5150277 -0.22543313 -4.4764155e-21)
(1.5635425 -0.28137089 -1.8641548e-21)
(0.61384794 -0.010105164 -6.0411978e-24)
(0.40544695 0.00068315825 0)
(0.12802983 0.0010241981 2.4775273e-20)
(1.5553233 0.053693685 0)
(1.5272417 -0.021045522 0)
(1.5359416 0.12073152 2.4035893e-21)
(1.4783497 0.16861454 2.1048643e-21)
(1.3197553 -0.13206172 0)
(1.4364982 -0.17292934 -1.8700495e-20)
(1.5272703 -0.2112782 -1.0795106e-20)
(1.5900157 -0.24499991 -6.9359596e-21)
(1.6183653 -0.27208375 -1.3961542e-21)
(1.6147246 -0.28887477 4.5584006e-21)
(1.5924556 -0.29087259 -3.9207057e-21)
(1.1804536 -0.091269504 -9.5348981e-23)
(1.0249497 -0.054513168 -2.5355886e-20)
(0.85846718 -0.026026537 -2.5806373e-20)
(1.4880459 -0.089647633 -1.4938754e-20)
(1.4413094 -0.14755667 0)
(1.4969568 -0.25752974 -6.1251228e-23)
(1.4504206 -0.18222047 -1.1079604e-20)
(1.4850054 -0.23575799 0)
(1.5369093 -0.28175647 4.4118553e-21)
(0.67981374 -0.0073339397 6.4976157e-24)
(0.4792825 0.002999382 2.5358698e-20)
(0.22827056 0.0041558934 -4.9495834e-20)
(1.5041204 0.067938562 2.3997773e-21)
(1.4724362 0.0020000522 -1.1994299e-20)
(1.4956163 0.10234854 -2.4998285e-21)
(1.4381031 0.14187638 0)
(1.285056 -0.10431765 9.510252e-23)
(1.4052491 -0.14124957 1.8557351e-20)
(1.50195 -0.1787043 1.2437738e-22)
(1.5727887 -0.21510333 -1.3938009e-21)
(1.6141457 -0.24894295 1.3714803e-21)
(1.6154317 -0.2743625 -2.1898973e-21)
(1.5954466 -0.28671726 3.906047e-21)
(1.5485956 -0.28506509 -3.0573241e-21)
(1.1438049 -0.068718755 0)
(0.98432363 -0.037485956 -2.7960433e-20)
(0.81063669 -0.0137124 -6.4697956e-24)
(1.4233522 -0.065649263 -6.1301723e-21)
(1.3721001 -0.12639661 -1.3168542e-20)
(1.458698 -0.26021315 0)
(1.400523 -0.19416779 1.3374622e-20)
(1.4163679 -0.22129312 0)
(1.4746002 -0.27144715 2.84468e-21)
(0.62181075 0.00052564501 0)
(0.40615524 0.0058493704 -2.1897204e-22)
(0.12124286 0.0020354438 5.1816931e-22)
(1.4685391 0.044061003 0)
(1.4193694 -0.021646363 1.0993981e-20)
(1.4460753 0.11751388 0)
(1.3467064 0.14423974 0)
(1.3320201 -0.081698072 -4.796107e-23)
(1.44315 -0.11129344 2.2281429e-20)
(1.5310224 -0.14482621 0)
(1.5922844 -0.18076678 1.810476e-20)
(1.6200481 -0.21621456 0)
(1.6137865 -0.24846131 0)
(1.5829051 -0.27018491 0)
(1.5200083 -0.27376357 7.2213329e-21)
(1.1990052 -0.05454633 0)
(1.04433 -0.029210367 2.7959491e-20)
(0.87233714 -0.0080047233 6.8616758e-24)
(1.3629433 -0.085825996 5.8137367e-21)
(1.3118716 -0.14088971 0)
(1.3840219 -0.24567535 5.4647308e-21)
(1.3264965 -0.17476492 -2.6161113e-21)
(1.3650181 -0.22700901 -4.1475244e-21)
(1.4323584 -0.26361018 -2.9458708e-21)
(0.68651746 0.0054549918 2.6103488e-20)
(0.47895494 0.01000991 -2.5137311e-20)
(0.22069926 0.0060193204 8.9563653e-22)
(1.4079359 0.067149371 0)
(1.3536632 0.0090392382 -1.923505e-20)
(1.3990273 0.096769869 0)
(1.3022151 0.12009471 2.8071108e-21)
(1.2874591 -0.050174879 0)
(1.4041505 -0.074177909 -4.5832828e-20)
(1.5011064 -0.10488754 0)
(1.5733092 -0.14179597 1.1101347e-21)
(1.6141636 -0.1807004 0)
(1.6168343 -0.21680859 -3.1267553e-21)
(1.5903711 -0.24804477 0)
(1.5325741 -0.26426255 -1.6599461e-20)
(1.4511065 -0.26305354 -8.4378037e-21)
(1.1518648 -0.030104364 0)
(0.99522457 -0.011494425 2.8694026e-20)
(0.81793967 0.003482615 -2.7445387e-20)
(1.284292 -0.051628321 5.3398426e-21)
(1.2360805 -0.11563392 0)
(1.3294885 -0.24105213 3.6574249e-22)
(1.2649111 -0.18169849 -1.2938484e-21)
(1.2836213 -0.20748395 5.986879e-21)
(1.3517998 -0.24905785 -1.424833e-21)
(0.62306433 0.011503089 -2.6098468e-20)
(0.40036545 0.010827047 2.3604516e-20)
(0.11139328 0.0029310082 2.3187918e-20)
(1.3506716 0.045382221 0)
(1.2804984 -0.010561308 2.063839e-20)
(1.320985 0.10352367 7.7709093e-21)
(1.1862868 0.10996169 -2.7260526e-21)
(1.3176496 -0.013379898 -2.7941302e-20)
(1.4291228 -0.031894433 4.8383024e-20)
(1.5222837 -0.060441632 1.9241881e-20)
(1.5887911 -0.097655935 -2.2987209e-20)
(1.6195273 -0.13934342 0)
(1.6133336 -0.18029273 3.0218642e-21)
(1.5760693 -0.21605233 8.7377286e-21)
(1.503148 -0.23878274 3.2300215e-20)
(1.4068358 -0.24386464 -2.8325361e-21)
(1.1902302 -0.0030675642 0)
(1.0436933 0.0052228822 -2.8709683e-20)
(0.87476373 0.013297051 2.7446117e-20)
(1.2182432 -0.069898914 0)
(1.1681508 -0.1246142 0)
(1.2426771 -0.22223234 0)
(1.1836773 -0.1576581 1.0862153e-20)
(1.220496 -0.2061667 -5.5698711e-21)
(1.2954533 -0.23365825 -8.3130445e-21)
(0.68571008 0.018463999 2.4503621e-20)
(0.47203499 0.016556241 -4.5916784e-20)
(0.20866785 0.0075561862 -2.0462171e-20)
(1.2748024 0.0643131 0)
(1.1981113 0.016545612 1.8328603e-20)
(1.2600574 0.084416803 -7.563865e-21)
(1.139429 0.08970111 1.6985873e-22)
(1.2652606 0.01671103 2.7915488e-20)
(1.3842935 0.0055383638 -2.46848e-20)
(1.4880895 -0.01787093 8.6871004e-22)
(1.5679224 -0.052926174 1.207488e-20)
(1.6131662 -0.096081416 0)
(1.6179222 -0.13986946 0)
(1.589769 -0.18048014 1.2532445e-21)
(1.5223244 -0.2144964 -2.2823341e-20)
(1.4292118 -0.23159935 -2.8848e-21)
(1.3212392 -0.23063976 8.2892865e-21)
(1.1343804 0.019999506 0)
(0.98594182 0.021171037 -8.409394e-25)
(0.81350143 0.022942135 1.9491134e-25)
(1.1335976 -0.044037267 -3.6471448e-20)
(1.0937799 -0.095441899 0)
(1.1781311 -0.21095587 0)
(1.1170955 -0.15905587 -9.6874827e-21)
(1.1340572 -0.18273437 -3.2860335e-22)
(1.2043241 -0.21647803 7.3707864e-21)
(0.61679002 0.022191353 -2.4504479e-20)
(0.38845679 0.015189448 2.2317608e-20)
(0.09932199 0.0036943671 2.0414921e-20)
(1.193193 0.045526173 -1.0062598e-20)
(1.1239332 0.011146867 -2.9063884e-20)
(1.1682189 0.080129724 -1.6915535e-22)
(1.0179886 0.076706675 -2.7872038e-21)
(1.2837353 0.060216082 0)
(1.4019974 0.052590914 1.1432936e-23)
(1.5050523 0.031463282 -4.0909617e-20)
(1.5812268 -0.0026507559 1.3748114e-20)
(1.6184795 -0.047841914 5.4830128e-21)
(1.6147924 -0.09666329 -5.5919684e-23)
(1.575622 -0.14274091 -9.6402505e-21)
(1.4935941 -0.17973356 2.553659e-22)
(1.3855774 -0.20144345 1.4060203e-20)
(1.2650845 -0.20589455 -1.4930708e-20)
(1.1575897 0.056310202 0)
(1.0197915 0.046245546 2.6329094e-20)
(0.86086629 0.037589128 0)
(1.1219278 -0.011929185 3.052272e-20)
(1.078211 -0.064614165 1.3956302e-20)
(1.0294528 -0.10228277 -1.0003378e-20)
(1.0875295 -0.18947081 0)
(1.0419682 -0.13060046 1.0155085e-20)
(1.0670904 -0.17530515 0)
(1.1399076 -0.1960413 -1.8284728e-20)
(0.67519971 0.031098217 2.1364182e-20)
(0.4587711 0.02200203 0)
(0.19271108 0.0083868249 0)
(1.1171769 0.050609937 1.3504695e-20)
(1.0205789 0.015362778 6.9531544e-21)
(1.1051755 0.063444388 0)
(0.97176182 0.061407175 1.3777014e-21)
(1.2260054 0.084947468 0)
(1.3515599 0.085368393 0)
(1.4652538 0.071873569 2.0717274e-20)
(1.5558624 0.043776174 -1.3733152e-20)
(1.6102923 0.0022711048 5.3699344e-22)
(1.6191273 -0.047327177 0)
(1.5934646 -0.097495004 5.5860964e-23)
(1.5200648 -0.14409591 -2.0822234e-22)
(1.4143102 -0.17738267 -2.5525227e-22)
(1.295203 -0.19241305 1.489514e-20)
(1.1702174 -0.19145739 1.0919497e-20)
(1.0953753 0.072996397 2.6213024e-20)
(0.95640898 0.056799108 -2.6339209e-20)
(0.7947289 0.043111995 0)
(1.0049751 -0.0090229424 3.2705845e-20)
(0.99394208 -0.043091417 1.32395e-20)
(0.95735908 -0.07384277 0)
(1.0211524 -0.17340339 0)
(0.97647001 -0.12700703 2.1709587e-22)
(0.98859849 -0.14868399 2.4726819e-21)
(1.0456927 -0.17735956 0)
(0.60204474 0.031771266 -2.1370225e-20)
(0.37115231 0.018298656 -1.6530992e-20)
(0.08640549 0.0041668774 0)
(1.0120608 0.039760902 -1.2003601e-20)
(0.95214293 0.0020459141 -1.8563018e-20)
(0.99075682 0.029106202 9.5490904e-21)
(1.0057414 0.057513461 0)
(0.83655808 0.048876017 1.2521141e-21)
(1.2384418 0.12851613 0)
(1.3662327 0.13225975 0)
(1.4804928 0.12125261 0)
(1.5681608 0.094778132 0)
(1.6156483 0.053664925 -6.016632e-21)
(1.6171271 0.0021172925 0)
(1.5802627 -0.053391601 1.1338181e-20)
(1.4918967 -0.10364594 0)
(1.3721163 -0.1396983 0)
(1.2410402 -0.15950228 0)
(1.1076193 -0.16359968 1.7596466e-20)
(1.1079596 0.11121368 -2.6212604e-20)
(0.97666334 0.086090182 0)
(0.83043686 0.061342734 -1.9679275e-20)
(0.96132483 -0.020245484 -2.7729045e-20)
(0.93352934 -0.049695602 0)
(0.8927386 -0.074693455 8.2595516e-21)
(0.93906013 -0.15007207 0)
(0.90950082 -0.097369752 -8.2294712e-21)
(0.92409036 -0.1370934 -2.486841e-21)
(0.98154297 -0.15424198 0)
(0.65431959 0.042212625 1.6843734e-20)
(0.4396859 0.025655127 1.6531186e-20)
(0.17425912 0.0084381359 9.9549284e-26)
(0.94924379 0.041877565 -2.3019875e-21)
(0.84615243 0.0025097568 -2.4067578e-20)
(0.84795207 0.019425849 0)
(0.79474411 0.039119458 -5.5510481e-21)
(1.176548 0.14348064 0)
(1.3107788 0.1560339 -2.2353466e-20)
(1.4351553 0.15410014 0)
(1.5377689 0.1365199 0)
(1.6039238 0.10278676 -6.8037745e-21)
(1.6208353 0.05541783 -4.3315628e-21)
(1.6002872 0.0005079721 -2.234181e-20)
(1.5243855 -0.056537408 -1.1677747e-22)
(1.4078247 -0.10479727 0)
(1.2768642 -0.13563586 0)
(1.142467 -0.14951866 -1.7577608e-20)
(1.0104037 -0.14889184 0)
(1.0429148 0.1189338 0)
(0.91065068 0.088655229 -1.9506055e-20)
(0.76228637 0.060840523 3.6554395e-20)
(0.84334214 -0.013504428 1.3308421e-20)
(0.83158099 -0.034315348 1.188437e-20)
(0.80523821 -0.052478917 -1.7381851e-20)
(0.87716499 -0.13169973 1.5247646e-22)
(0.84500495 -0.090944918 1.4399551e-22)
(0.85813751 -0.10925574 0)
(0.8961751 -0.13504856 1.0536131e-20)
(0.57900927 0.039153757 -1.6853534e-20)
(0.34961313 0.019713865 -9.8908608e-26)
(0.073635371 0.0043019064 -9.2357981e-21)
(0.84261979 0.034199828 -3.6938351e-22)
(0.78687537 -0.0059508255 -1.2835469e-22)
(0.7925534 0.0096972047 1.187425e-20)
(0.79476929 0.023397769 9.1783428e-21)
(0.66437548 0.027535579 1.1939952e-21)
(1.187942 0.18130375 0)
(1.325953 0.19673031 2.235308e-20)
(1.4506795 0.19789675 0)
(1.5499395 0.18348261 1.3851797e-20)
(1.6095766 0.15206848 1.3711824e-20)
(1.6188148 0.1056513 1.0567691e-21)
(1.5878101 0.048615287 4.1427315e-22)
(1.4966915 -0.010220416 8.446765e-23)
(1.366695 -0.060562763 0)
(1.225389 -0.096108105 0)
(1.0832641 -0.1155118 -3.2778582e-22)
(0.95000007 -0.12045201 0)
(1.0508757 0.15322847 1.8782675e-20)
(0.9218736 0.11681975 1.9506636e-20)
(0.78750727 0.079822536 -1.6861171e-20)
(0.78310332 -0.022215659 -1.1972756e-20)
(0.76582378 -0.038078813 9.4197442e-21)
(0.73756872 -0.051064565 7.7399831e-21)
(0.80969997 -0.10773581 -2.8000938e-21)
(0.76884446 -0.065536003 -1.4459447e-22)
(0.79648681 -0.096288959 2.6427231e-21)
(0.83850381 -0.11186544 -1.0565674e-20)
(0.62452266 0.050038905 1.9207536e-25)
(0.41613284 0.026936986 0)
(0.15523008 0.0076130475 9.2603119e-21)
(0.66171764 -0.007199318 -1.1368655e-20)
(0.66454438 0.0050957271 9.4331203e-21)
(0.66517098 0.015790617 5.7044099e-21)
(0.63940022 0.020718779 0)
(0.61047952 0.019001639 1.2265508e-21)
(1.1231233 0.18538617 -5.9835419e-25)
(1.2664232 0.20914578 0)
(1.4009777 0.21934165 0)
(1.5142433 0.21491289 -8.4292858e-22)
(1.5931543 0.19451918 -1.3879721e-20)
(1.6208986 0.15560071 4.1319982e-21)
(1.6083263 0.10435093 1.0702705e-20)
(1.5339325 0.044082511 -1.8236049e-20)
(1.4100559 -0.015480198 -8.4583683e-23)
(1.2681612 -0.062205097 -2.5909032e-20)
(1.1236915 -0.092121408 -2.4649412e-20)
(0.98405105 -0.10648906 3.2821076e-22)
(0.86220213 -0.10687201 0)
(0.98500774 0.15085931 -1.8802514e-20)
(0.85610856 0.11061052 0)
(0.72043963 0.072754582 1.0610501e-20)
(0.65624791 -0.017840832 0)
(0.64453578 -0.028140529 1.2258602e-21)
(0.62522828 -0.036330547 0)
(0.75257477 -0.089958392 0)
(0.70254217 -0.05886551 -8.5752375e-22)
(0.72798144 -0.071253553 8.5876788e-22)
(0.76910335 -0.093484609 0)
(0.54963268 0.043008056 0)
(0.32571174 0.019163649 6.0627867e-21)
(0.062188002 0.0040703184 0)
(0.60047983 -0.0020983644 -6.4143077e-22)
(0.59526516 -0.01152973 1.1070949e-20)
(0.60322842 0.0086180445 -1.7069503e-20)
(0.4395058 0.01904106 -3.0872599e-21)
(0.46140408 0.01035749 -1.1985389e-21)
(1.1370404 0.21374519 1.3238089e-20)
(1.2840269 0.24008346 1.4184965e-20)
(1.4178739 0.25359735 -9.9135028e-26)
(1.526848 0.25318971 -1.5318713e-21)
(1.5991426 0.23705277 1.3487456e-20)
(1.6183001 0.2010153 -1.2228284e-21)
(1.5963694 0.15129897 0)
(1.5069321 0.091267297 3.5495937e-20)
(1.3707963 0.031705397 2.3488776e-20)
(1.2203731 -0.018447159 2.6058411e-20)
(1.0696412 -0.054124845 5.0466831e-20)
(0.92894702 -0.074633012 1.6143436e-22)
(0.81008566 -0.080837562 1.239429e-22)
(0.99331905 0.17682052 -3.8048141e-25)
(0.86364062 0.13326346 0)
(0.73867366 0.089276304 -1.0610658e-20)
(0.58644096 -0.020520881 -9.7927208e-21)
(0.57140437 -0.027952377 8.5966298e-21)
(0.55061566 -0.032966928 0)
(0.68811843 -0.068243539 6.695911e-21)
(0.59985723 -0.041159646 0)
(0.66535523 -0.059986982 -4.0203714e-23)
(0.71769442 -0.073099615 1.3424207e-20)
(0.58931733 0.052727721 0)
(0.39033262 0.025395046 -6.0627695e-21)
(0.13763257 0.005857015 -1.8058608e-21)
(0.45970161 -0.0033597864 6.331079e-22)
(0.45387406 -0.009777619 -9.7610626e-21)
(0.4623625 0.0031888049 8.0712248e-21)
(0.39326772 0.013952669 1.8181248e-21)
(0.39062739 0.0042056493 0)
(1.0705597 0.20655519 -1.3251494e-20)
(1.2216587 0.24016376 -1.4194733e-20)
(1.3652676 0.26223632 -2.1738752e-25)
(1.4873137 0.270868 -1.1469197e-20)
(1.5772318 0.26604545 -1.2617968e-20)
(1.618431 0.24210499 1.5255886e-22)
(1.6144493 0.20099223 -7.8820592e-21)
(1.5477273 0.14537198 1.4210904e-20)
(1.4217949 0.081669505 -2.3439524e-20)
(1.2713155 0.023093098 2.5876088e-20)
(1.1170644 -0.022423232 -2.5959033e-20)
(0.96929988 -0.052683638 9.6179054e-23)
(0.83958581 -0.068257767 -1.6168763e-22)
(0.73872819 -0.06906982 -1.3550109e-20)
(0.92787762 0.16483104 0)
(0.80060071 0.11924942 -5.6722108e-21)
(0.67508325 0.076407456 0)
(0.44442578 -0.015222157 -9.7142409e-21)
(0.43062223 -0.019476211 -1.4328262e-20)
(0.4127579 -0.021940798 -3.1105072e-21)
(0.63068293 -0.053732173 2.4527893e-21)
(0.52607522 -0.034743175 5.2838904e-25)
(0.57133589 -0.041624766 -3.2910136e-21)
(0.65406606 -0.056508829 -9.1139859e-21)
(0.51734338 0.042257424 0)
(0.30190051 0.016497619 0)
(0.053464468 0.0034430395 1.8016511e-21)
(0.38318792 -0.0057717919 -3.0910876e-22)
(0.38840016 -0.00067665396 -8.1896172e-21)
(0.37452845 -0.010068658 1.9901294e-20)
(0.2161782 0.010153614 4.2319841e-21)
(0.22204374 -0.00014324348 5.2388648e-21)
(1.089282 0.22285862 0)
(1.2429142 0.25872393 6.5467688e-21)
(1.3843834 0.28448376 0)
(1.5013669 0.29750276 0)
(1.5834261 0.29752708 6.1141567e-21)
(1.6160925 0.27781374 -1.5085781e-22)
(1.6041256 0.24118279 7.8824513e-21)
(1.5230637 0.18710105 -3.1426585e-20)
(1.3861253 0.12405357 0)
(1.2292303 0.064620305 -1.1236451e-21)
(1.0701391 0.015288761 0)
(0.92119941 -0.020376985 0)
(0.79412572 -0.041557137 -2.0854847e-20)
(0.69384907 -0.048015903 0)
(0.94051391 0.18007804 -1.253165e-25)
(0.80920186 0.13343346 5.6721895e-21)
(0.69063488 0.08779294 0)
(0.36180975 -0.013585678 7.8360435e-21)
(0.34520423 -0.015802044 6.4668886e-21)
(0.32590857 -0.016457991 3.1210085e-21)
(0.54317391 -0.037139017 5.5367321e-21)
(0.39229197 -0.022183573 -8.2229149e-22)
(0.50046736 -0.032711271 -2.2508932e-21)
(0.60263442 -0.040713704 -1.2896555e-20)
(0.55333676 0.049174826 -2.6993711e-27)
(0.36516081 0.020878357 -1.3853662e-21)
(0.12345831 0.0032276323 -2.2373655e-21)
(0.21291569 -0.0041260786 3.0879717e-22)
(0.21907086 -0.0023040287 7.6351501e-21)
(0.20366754 -0.0057440751 -9.65696e-21)
(0.1575055 0.012310564 -5.5242757e-21)
(0.13392232 0.0013455465 -5.6290705e-21)
(0.1250141 -0.00056757763 -8.080637e-21)
(1.0232899 0.20521649 -5.5755763e-22)
(1.1792203 0.24595742 -8.9067096e-21)
(1.3296045 0.27935692 0)
(1.4597984 0.30147053 0)
(1.5573476 0.31016816 0)
(1.6122803 0.30484894 1.1376935e-21)
(1.6173229 0.27878175 0)
(1.5662999 0.23376 0)
(1.4432602 0.17193933 -8.5488798e-24)
(1.288216 0.10867233 -2.4664871e-20)
(1.1253514 0.052128149 -5.0100046e-23)
(0.9687637 0.007804369 2.3825077e-20)
(0.83046678 -0.022436964 2.0852997e-20)
(0.72057516 -0.037565085 0)
(0.6292182 -0.037853684 2.6924707e-20)
(0.8774083 0.16015263 0)
(0.75045157 0.11372966 0)
(0.6320796 0.07074137 2.692761e-27)
(0.1913986 -0.0069210449 1.6102964e-20)
(0.17640617 -0.0073543932 -6.2729719e-21)
(0.16003832 -0.0071159801 -1.3664949e-21)
(0.47684682 -0.026750372 9.4330163e-21)
(0.30576417 -0.015380046 8.1757763e-22)
(0.37120736 -0.019981232 4.7975494e-21)
(0.51890337 -0.027873655 -9.3909565e-21)
(0.48626108 0.036496053 0)
(0.28091374 0.011884119 4.7759318e-21)
(0.048556793 0.0023441814 5.9932995e-21)
(0.11877284 -0.0013070842 0)
(0.11089731 -0.0020730799 9.6431121e-21)
(0.10122528 -0.0027571685 -8.5376293e-21)
(1.0476629 0.208997 5.5768353e-22)
(1.2053407 0.25093871 3.723926e-22)
(1.351991 0.2872344 3.5464467e-26)
(1.4757765 0.31407017 0)
(1.5650992 0.32791624 2.1281608e-21)
(1.610848 0.32650932 -7.8836273e-22)
(1.6106877 0.30671092 0)
(1.5455942 0.26386296 9.513458e-21)
(1.412686 0.20435821 4.409251e-24)
(1.2521363 0.1417901 -2.020129e-20)
(1.0860133 0.084288173 0)
(0.92869744 0.036735141 -2.3852436e-20)
(0.79248895 0.0021183279 1.9090767e-23)
(0.68264166 -0.017799794 0)
(0.58400598 -0.022717752 -1.4087496e-20)
(0.89573121 0.16401773 0)
(0.76375694 0.11842647 0)
(0.64918062 0.075387052 -1.6255431e-25)
(0.090209268 -0.0033208828 -1.2614622e-21)
(0.078919058 -0.0036006553 0)
(0.068131289 -0.0035739921 1.3658762e-21)
(0.35176742 -0.015381806 -1.5788617e-21)
(0.14397058 -0.0061228127 -2.3883193e-21)
(0.28683178 -0.012563972 -1.1454883e-20)
(0.45812761 -0.017351777 1.2034483e-20)
(0.52128534 0.039364043 0)
(0.34369289 0.013669945 -3.3895825e-21)
(0.11460091 -6.0276554e-05 1.0383386e-21)
(0.98395292 0.18403814 0)
(1.142537 0.22785566 1.9832972e-21)
(1.2964523 0.26862523 0)
(1.4325151 0.30334532 -1.2170257e-21)
(1.5383383 0.32656067 -2.1287718e-21)
(1.6018938 0.33437573 -2.9402438e-22)
(1.6191322 0.32895193 -3.779201e-26)
(1.5869469 0.29994311 -2.4550444e-21)
(1.4727543 0.24605243 -1.2504607e-20)
(1.3176259 0.18366068 3.7246742e-20)
(1.1486101 0.12208208 0)
(0.9838238 0.068183814 0)
(0.83626853 0.025779597 2.1501296e-23)
(0.71611114 -0.0022970585 1.7628798e-20)
(0.61549405 -0.01484456 0)
(0.50142782 -0.014882129 -1.2034874e-20)
(0.83630634 0.13897125 0)
(0.71028733 0.095476312 1.6230076e-25)
(0.59652442 0.056528952 0)
(0.27119369 -0.0082432053 8.2380786e-21)
(0.058963267 -0.0032366253 6.62493e-21)
(0.12983568 -0.0043724337 1.6824837e-21)
(0.33621392 -0.0087845112 0)
(0.46033161 0.026151258 -7.7558045e-26)
(0.26536247 0.0057070153 -3.7522651e-26)
(0.048119463 0.00081639324 -4.7973241e-21)
(1.013801 0.17766749 3.3949116e-25)
(1.1733695 0.22118631 0)
(1.3223714 0.26290713 0)
(1.4505383 0.30081437 -3.3806545e-21)
(1.5478011 0.32944378 -1.9319746e-21)
(1.6030898 0.34240345 -9.1704285e-22)
(1.6137805 0.34132649 1.6350971e-21)
(1.5697103 0.31698179 -1.1887213e-20)
(1.4473722 0.26648001 1.2503245e-20)
(1.287034 0.20548572 -3.0801806e-20)