/*--------------------------------*- C++ -*----------------------------------*\
| =========                 |                                                 |
| \\      /  F ield         | OpenFOAM: The Open Source CFD Toolbox           |
|  \\    /   O peration     | Version:  2112                                  |
|   \\  /    A nd           | Website:  www.openfoam.com                      |
|    \\/     M anipulation  |                                                 |
\*---------------------------------------------------------------------------*/
FoamFile
{
    version     2.0;
    format      ascii;
    arch        "LSB;label=32;scalar=64";
    class       volScalarField;
    location    "2";
    object      p;
}
// * * * * * * * * * * * * * * * * * * * * * * * * * * * * * * * * * * * * * //

dimensions      [0 2 -2 0 0 0 0];

internalField   nonuniform List<scalar> 
10936
(
0.0034903717
0.003623314
0.010433097
0.0037789989
0.010418683
0.0057823662
0.0039636946
0.010496798
0.0056848363
0.0047223399
0.0041863008
0.010644146
0.005563485
0.0044894334
0.014054677
0.0044602612
0.010811391
0.005423401
0.0041310983
0.014003727
0.038069662
0.0047561031
0.010969685
0.0052760875
0.003710045
0.013725284
0.038329734
0.061611656
0.0050412169
0.011135417
0.0051097362
0.003263687
0.013256831
0.038571386
0.061980774
0.07663924
0.005294383
0.011326772
0.0049301742
0.0028246249
0.012679723
0.038786603
0.062445478
0.077150005
0.068281281
0.0055084381
0.011548471
0.0047504387
0.0024016967
0.012043772
0.039010095
0.062990719
0.078010125
0.068284875
0.044228152
0.0056873827
0.011786522
0.0045699624
0.0019960256
0.01138
0.039264729
0.063537536
0.079068952
0.068502182
0.043798578
0.02469502
0.0058331356
0.012015949
0.0043831769
0.0016252396
0.010704681
0.039567457
0.064053455
0.080232513
0.068960172
0.043198521
0.023768826
0.023909226
0.0059509661
0.012216517
0.0041794651
0.0013113319
0.010022548
0.039917751
0.06451217
0.081462986
0.069527147
0.042559475
0.02269739
0.023106359
0.055232783
0.0060488601
0.01236631
0.0039448501
0.0010774797
0.0093344465
0.040290474
0.064897463
0.082628505
0.070106339
0.041868
0.021376492
0.021577352
0.055434127
0.10133713
0.0061356485
0.012443248
0.0036598005
0.00094829627
0.0086454737
0.040649068
0.065124856
0.08365822
0.070628503
0.041137533
0.019827051
0.019498572
0.05518276
0.10217069
0.13958483
0.0062206686
0.012433897
0.0033831992
0.00095603124
0.0079672353
0.040955378
0.065099529
0.084609719
0.071045485
0.040369711
0.018085093
0.017157588
0.054513656
0.1029424
0.14057107
0.16464849
0.0063130513
0.012328726
0.0032335224
0.0010568074
0.0073161002
0.041169907
0.064804034
0.085576986
0.071305929
0.039542606
0.01619343
0.014619544
0.053628204
0.10362413
0.14176172
0.16571067
0.16142201
0.0064204782
0.01211755
0.0032626786
0.0011372663
0.0067094837
0.041253581
0.064266654
0.086595535
0.071355108
0.038618308
0.01420169
0.011879084
0.05263514
0.1042783
0.14304453
0.16736315
0.16208654
0.13099177
0.006549379
0.011801686
0.0034623787
0.0011455896
0.0061745967
0.041169567
0.063547934
0.087686996
0.071125007
0.037554122
0.012165082
0.0088972378
0.051582466
0.10494618
0.14426919
0.16947842
0.16351612
0.13072373
0.087967691
0.0067055384
0.011422712
0.0038098942
0.0010935719
0.005749891
0.040947305
0.062724696
0.088831612
0.070535854
0.036306855
0.010148213
0.0056617045
0.050504656
0.10564392
0.14532887
0.17161504
0.16560379
0.13062189
0.086884935
0.050339351
0.0068956236
0.011012784
0.0042374607
0.0010064852
0.0054663102
0.040695542
0.061799693
0.090044393
0.069524511
0.034828604
0.0082368747
0.002217107
0.049418107
0.1063678
0.14613974
0.17363832
0.16793479
0.13089837
0.085402509
0.048416937
0.035152632
0.0071389097
0.010563177
0.0046717157
0.00091212876
0.0053400193
0.040486066
0.060672972
0.091232321
0.068064273
0.033236717
0.0065489142
-0.0013664713
0.048332256
0.10695365
0.14661573
0.17530139
0.17029194
0.13124591
0.083890091
0.045749813
0.033054672
0.054939943
0.0074001119
0.010035
0.0050919426
0.00083551965
0.005382353
0.040338136
0.059299623
0.092203494
0.066213929
0.031759286
0.0050609559
-0.0050072495
0.047274383
0.10716792
0.14677155
0.17636354
0.17254204
0.13144241
0.082213618
0.042422896
0.029847378
0.054110721
0.097505425
0.0075858504
0.0094519235
0.0055431402
0.00078956585
0.0056081581
0.040272825
0.057715185
0.092782182
0.064175089
0.030501578
0.0036164683
-0.0086244333
0.046281414
0.10684344
0.14656583
0.1767168
0.17459949
0.13129754
0.080265349
0.038641763
0.025637907
0.05224817
0.098068834
0.14405338
0.0076644262
0.0089338191
0.0060586794
0.00071490617
0.0060112233
0.040264707
0.056057492
0.092935818
0.062126144
0.029468929
0.0021753577
-0.012113936
0.045395771
0.10606595
0.14594996
0.17651008
0.17644259
0.13063526
0.077947417
0.034420954
0.02066879
0.049364543
0.098012158
0.1452373
0.18562623
0.00763176
0.0085065704
0.0065728425
0.00080919442
0.0064308641
0.040144043
0.054455032
0.092573625
0.060223765
0.028646492
0.000794297
-0.015382437
0.044645147
0.10504388
0.14473209
0.17591544
0.17805579
0.12924342
0.075152061
0.029682267
0.015004717
0.045845247
0.097331518
0.14614026
0.18692606
0.21946507
0.0074877333
0.0081733061
0.0070820389
0.0010804175
0.0069946089
0.039681362
0.052969814
0.091575012
0.058530562
0.027954705
-0.00047922095
-0.018324607
0.044046761
0.10386883
0.14267753
0.17504501
0.17930601
0.12691229
0.071766813
0.024336659
0.0086529785
0.041831178
0.096286628
0.14668876
0.18822638
0.22070806
0.24332768
0.007235886
0.0079330496
0.0075897043
0.0015490474
0.0076695119
0.038919954
0.051481975
0.090002573
0.057006499
0.027295823
-0.0016126734
-0.020825936
0.043579162
0.10261946
0.13978615
0.17400433
0.17984348
0.12361861
0.067795846
0.018436644
0.0015242796
0.037287925
0.094993954
0.14695579
0.18938921
0.22230336
0.24447808
0.25351765
0.0068831879
0.0077820697
0.0080982251
0.0022261063
0.0084825429
0.038054924
0.049614428
0.088162827
0.055748402
0.026637593
-0.0025814706
-0.022812609
0.043200624
0.10137581
0.13610454
0.17283805
0.17927893
0.11960411
0.063484823
0.012103542
-0.0064724776
0.032160636
0.093451624
0.14697294
0.19033054
0.22402824
0.24626875
0.25473529
0.24746117
0.0064392523
0.0077145134
0.0086095552
0.0031152381
0.0094412536
0.037130123
0.047785491
0.08557718
0.055057783
0.026047747
-0.0033294771
-0.024234646
0.042870564
0.10007477
0.13169663
0.17137683
0.17745162
0.11513244
0.059133137
0.0054079252
-0.01518374
0.026470769
0.091587656
0.14672791
0.19099732
0.22562917
0.24859112
0.25696544
0.24834157
0.22586612
0.0059161403
0.0077229368
0.0091254474
0.0042138688
0.010545752
0.036154641
0.045986631
0.082596425
0.054362197
0.025743522
-0.0037878508
-0.025004348
0.042568858
0.098521656
0.12675919
0.16933168
0.17457341
0.11047932
0.054868049
-0.0014821242
-0.024343536
0.020313208
0.089341516
0.14617899
0.19133548
0.22694886
0.25109453
0.25973968
0.25031379
0.22616444
0.19344034
0.0053286427
0.0077986452
0.0096472643
0.0055139772
0.011794008
0.035142817
0.044161339
0.079212031
0.053550623
0.026000947
-0.0043064906
-0.025037594
0.042323035
0.096627476
0.12163277
0.16657491
0.17099199
0.10587566
0.05066039
-0.0083119502
-0.033626707
0.013816172
0.086685889
0.1452428
0.19126882
0.2278736
0.25346301
0.26271093
0.25320412
0.22716007
0.19293099
0.15768583
0.0046936824
0.0079318789
0.010175744
0.0070025743
0.013181482
0.034109339
0.042311017
0.075436984
0.052640573
0.026340485
-0.0039347478
-0.025494941
0.042052823
0.094426118
0.11657421
0.16313008
0.16691197
0.10141512
0.046473365
-0.014870881
-0.042742108
0.0070834215
0.083632262
0.14386098
0.19075757
0.2283206
0.25550855
0.26567006
0.2565433
0.22906653
0.19244323
0.15630416
0.12670851
0.0040222802
0.0081115312
0.010710937
0.0086621115
0.014700706
0.033066602
0.040402726
0.071279029
0.051644926
0.026747891
-0.0033467465
-0.025258222
0.04059602
0.091907935
0.11171641
0.15908916
0.16246872
0.097157028
0.042359865
-0.020978924
-0.051447184
0.00024505702
0.080209247
0.14204221
0.18982226
0.22821779
0.2571128
0.26816852
0.26001527
0.23154313
0.1925492
0.15435724
0.12463645
0.10664788
0.0033317502
0.0083261491
0.011252322
0.010470662
0.016340756
0.032024653
0.038401284
0.066801966
0.050569499
0.027258597
-0.0024796854
-0.024576175
0.038878302
0.088752703
0.10691313
0.15523269
0.15767758
0.093105345
0.038410239
-0.026519232
-0.05955487
-0.0065396981
0.07645847
0.13981269
0.18844521
0.22738158
0.2578007
0.2721022
0.26341484
0.23430491
0.19300106
0.15250661
0.12165606
0.10394636
0.097513359
0.0026417708
0.0085699179
0.011798704
0.0124023
0.018067025
0.030987424
0.036320614
0.062080272
0.049424525
0.027881416
-0.001278009
-0.023341149
0.037430247
0.084702631
0.10226907
0.1490152
0.15228449
0.089133889
0.034676795
-0.031435626
-0.066929183
-0.013133007
0.072470933
0.13722886
0.18660996
0.2256594
0.25691216
0.27253911
0.26661521
0.23703161
0.1935638
0.15066644
0.11819829
0.10089173
0.095970576
0.09641843
0.0088267831
0.0019650316
0.012347641
0.014428881
0.019841103
0.029990586
0.034179284
0.05714629
0.048226
0.028617592
0.00027829093
-0.021448916
0.036386323
0.080654357
0.095793311
0.14422832
0.14656041
0.085173764
0.031128672
-0.035729533
-0.073481386
-0.019424653
0.068363963
0.13434329
0.18412535
0.22304255
0.25400872
0.27227083
0.26930545
0.23936145
0.19383981
0.14870039
0.11432953
0.096807784
0.09361767
0.095477808
0.0990676
0.012901011
0.0090727614
0.0013151401
0.016524522
0.021646
0.029067258
0.031996803
0.052031023
0.046994935
0.029467078
0.0021958573
-0.018862324
0.035738347
0.076746485
0.089259327
0.13568225
0.14241411
0.081842583
0.027727465
-0.039414392
-0.079171667
-0.025184192
0.06421601
0.13121875
0.18070056
0.21924758
0.2490295
0.27162957
0.27146289
0.24082199
0.19327374
0.14624046
0.10995358
0.091897023
0.090248156
0.094183946
0.098208084
0.10395158
0.018668478
0.013469434
0.0092993603
0.00070949817
0.023472109
0.028213044
0.029797764
0.046763564
0.045759579
0.03042716
0.0044768048
-0.015561746
0.035500332
0.07292809
0.082773859
0.13020729
0.13693184
0.080419941
0.02477393
-0.042377378
-0.08405332
-0.03017223
0.060057949
0.12794287
0.17644013
0.21410444
0.24262354
0.27065688
0.27289647
0.24073981
0.19156102
0.14282578
0.10471628
0.086119454
0.085927
0.091832199
0.097013225
0.10283422
0.1123391
0.025309987
0.02082453
0.014063494
0.0094966733
0.00016542505
0.027428091
0.027615761
0.041387769
0.044560622
0.031490491
0.0071171231
-0.011537125
0.035668955
0.069205995
0.076266506
0.12082362
0.13060319
0.079620137
0.023141484
-0.044338641
-0.087956491
-0.034371624
0.055815917
0.12459661
0.17163976
0.20762808
0.23640167
0.26962037
0.27293261
0.23876403
0.18841376
0.13784471
0.098204384
0.079256054
0.080513964
0.088749183
0.095005917
0.1011801
0.11085702
0.12634096
0.026702545
0.027174906
0.022943734
0.014691172
0.0096511311
-0.00030254368
0.025474716
0.035971842
0.043432121
0.032639956
0.01010543
-0.0067940562
0.036228692
0.065642805
0.069724345
0.11073052
0.12329557
0.078561676
0.024034846
-0.046240145
-0.089916285
-0.037865589
0.051476364
0.12125332
0.16652493
0.19963046
0.23020683
0.26756557
0.27089924
0.23512006
0.18357527
0.13086546
0.089946198
0.071004368
0.074219297
0.085093878
0.092338343
0.098745611
0.10865511
0.12472677
0.14783492
0.023401241
0.026010377
0.029081685
0.024995579
0.015351179
0.009748658
-0.00068234421
0.03059509
0.042383598
0.033856726
0.01342335
-0.0013575523
0.037172134
0.062291523
0.063238671
0.10008277
0.11493607
0.077189628
0.02488756
-0.044999764
-0.094383146
-0.040544408
0.047318902
0.11792604
0.16104728
0.1900763
0.22304774
0.26345487
0.26643195
0.23003039
0.17719628
0.12214089
0.079572532
0.061027391
0.067210093
0.080846006
0.089348817
0.095915687
0.1056648
0.12206396
0.1465835
0.17668815
0.025305485
0.021422915
0.025330418
0.031017924
0.026969153
0.016039727
0.0097797118
-0.00096383457
0.041405881
0.03513233
0.017048397
0.004725996
0.038483407
0.059164586
0.05684076
0.088964111
0.10575277
0.075641564
0.025718823
-0.044032643
-0.082999997
-0.04634112
0.043625727
0.11465971
0.15491189
0.17929425
0.21524957
0.25794687
0.26022441
0.22377266
0.16964334
0.11216281
0.067331737
0.049257059
0.059257181
0.075942109
0.086581753
0.093101333
0.10251988
0.1186371
0.14395865
0.1762215
0.21075261
0.040477066
0.020142353
0.019569401
0.024651831
0.03296809
0.028841401
0.016762143
0.0097369836
-0.0011395365
0.036469763
0.020951513
0.011393292
0.040132114
0.056287272
0.05051286
0.077468939
0.096034264
0.07377283
0.026601355
-0.042636576
-0.084347005
-0.051399217
0.037224388
0.11134417
0.14789744
0.16815637
0.20728789
0.25129998
0.25292936
0.21668206
0.16121156
0.10122127
0.053820299
0.035851456
0.050290098
0.070784486
0.084051705
0.090180147
0.099242838
0.114907
0.14036986
0.17443887
0.21145028
0.24662056
0.037893133
0.039583549
0.015153205
0.017864998
0.023984099
0.034896491
0.030579183
0.017521665
0.0096141768
-0.0012033137
0.025096408
0.018562727
0.042079186
0.053676881
0.044300582
0.065701933
0.085897906
0.071404416
0.02752391
-0.040740421
-0.084691797
-0.055794735
0.029446851
0.10616381
0.14035111
0.1573362
0.19919127
0.24326329
0.24456226
0.20902086
0.15211683
0.089593299
0.039580131
0.021285518
0.040267525
0.065369853
0.081300455
0.087275914
0.095934095
0.11121873
0.13657232
0.17158887
0.21112752
0.24854157
0.28023524
0.029439115
0.039436646
0.038731589
0.01039984
0.01632959
0.023361182
0.036761032
0.032159294
0.018320643
0.009406751
-0.0011541179
0.026140116
0.044296291
0.051319475
0.038285036
0.05380828
0.07547374
0.06865865
0.028482181
-0.038346898
-0.083864253
-0.059494401
0.022221071
0.099179711
0.13230657
0.1466191
0.19081551
0.2339088
0.23536369
0.20109823
0.14257503
0.077689815
0.02484238
0.0061254115
0.028992058
0.059430205
0.078278004
0.084819971
0.092906983
0.10790626
0.13297156
0.16847449
0.20984966
0.25002698
0.28317035
0.30815327
0.034034628
0.033936559
0.041129352
0.037936575
0.0059393358
0.014977849
0.022813352
0.038547037
0.03356425
0.019160446
0.0091124341
-0.00099889287
0.046738845
0.049241299
0.032518918
0.04196824
0.064872353
0.065663323
0.029487546
-0.035484533
-0.081919908
-0.062070209
0.016008298
0.092369508
0.12184987
0.13749259
0.18116962
0.2227776
0.22539326
0.19316605
0.13281506
0.06577315
0.0097147151
-0.0096574046
0.016361875
0.052954825
0.075155234
0.082737328
0.090370785
0.10514868
0.12981953
0.16549977
0.20817323
0.25087998
0.28641548
0.31161197
0.32813285
0.04937399
0.042163728
0.038560514
0.042956297
0.037211994
0.0018216608
0.013819826
0.0223522
0.040243069
0.034781524
0.02004088
0.0087337481
-0.00075108939
0.047479696
0.027035924
0.030320667
0.054200032
0.062532288
0.030566534
-0.032183346
-0.078865816
-0.063290706
0.01058012
0.086336695
0.11163529
0.12412475
0.17259976
0.21015372
0.21395645
0.18480309
0.12301464
0.054021322
-0.0055607588
-0.026125984
0.0029614566
0.045961626
0.071764047
0.080854726
0.088296419
0.10298552
0.1272237
0.16283229
0.20638365
0.25121743
0.28954907
0.31615714
0.33144436
0.33883309
0.045972476
0.05221113
0.050454435
0.043276541
0.044912879
0.036567964
-0.0019122567
0.012840303
0.021982962
0.041839352
0.035804063
0.020959362
0.0082786342
-0.00046962358
0.021872639
0.018939536
0.043570922
0.059374812
0.031758485
-0.028446816
-0.074686764
-0.063044835
0.0060947837
0.080923694
0.10181865
0.11090759
0.15697042
0.20075653
0.20184505
0.17539952
0.11305262
0.042544819
-0.020709503
-0.042913148
-0.010632481
0.038472893
0.067963559
0.078898006
0.086595928
0.10134483
0.1251768
0.16050425
0.20456478
0.25111792
0.29217435
0.32120346
0.33671424
0.34192036
0.34043717
0.017063472
0.044661174
0.055240098
0.058828668
0.04803963
0.047003785
0.036016253
-0.0052084106
0.011988034
0.021710313
0.043328239
0.036630655
0.021910164
0.0078016361
-0.0002232112
0.0079423694
0.033115791
0.056302282
0.033105781
-0.024260526
-0.069369739
-0.06124132
0.0029425216
0.076015809
0.09210154
0.098073867
0.14174128
0.18548121
0.19423943
0.16650248
0.10262153
0.031344021
-0.03555484
-0.059685981
-0.024271157
0.030601792
0.063665571
0.076802474
0.085119703
0.1000962
0.12356902
0.15840767
0.20263911
0.25049397
0.2939766
0.32583821
0.34302818
0.34731961
0.34320166
0.33380798
-0.00252396
0.012616398
0.043542781
0.058431313
0.067149009
0.052793435
0.049223344
0.035567842
-0.007991293
0.01122779
0.021538623
0.044704334
0.03726679
0.022884703
0.0073797161
-2.7492508e-05
0.022996368
0.053451033
0.03464806
-0.019624188
-0.062913843
-0.057805098
0.0012646095
0.071548024
0.082549398
0.085125915
0.12631502
0.1699239
0.18343099
0.16250971
0.092924151
0.020548067
-0.049933373
-0.076199132
-0.037813816
0.022524992
0.058876069
0.074456645
0.083717396
0.099081751
0.1221309
0.15628438
0.20033432
0.24903156
0.29457939
0.32932965
0.3491306
0.35431721
0.34837432
0.33633062
0.32023922
0.013356337
-0.012356978
0.0085542028
0.042606404
0.06176429
0.075277737
0.057477405
0.051554529
0.035230898
-0.010217731
0.010550324
0.021472271
0.045964246
0.037730134
0.02386817
0.0070316226
0.00011815313
0.0508998
0.036424815
-0.014534358
-0.055331005
-0.052693969
0.0011501731
0.067420544
0.073317793
0.07207976
0.11026133
0.15336572
0.17225534
0.15799949
0.08755352
0.011040335
-0.0631878
-0.092223195
-0.051152416
0.014412175
0.053661709
0.07176668
0.0822559
0.098102302
0.12059273
0.15393322
0.19731994
0.24630327
0.29351617
0.33105918
0.35402955
0.36138723
0.35566914
0.34121884
0.32260239
0.30142608
0.048701278
0.0043622893
-0.021411262
0.00487936
0.041836152
0.065203663
0.083129648
0.062058535
0.05397862
0.035008955
-0.011887854
0.0099421187
0.021515418
0.047103568
0.038059128
0.024833384
0.0067781032
0.00021539729
0.038480223
-0.0089810645
-0.046646611
-0.045901544
0.0026709827
0.063627868
0.064500229
0.059020019
0.093618984
0.13573912
0.15993766
0.15115875
0.086426301
0.0037325767
-0.074519302
-0.10712858
-0.064149143
0.0064198936
0.04812195
0.068689861
0.08064593
0.096942096
0.11880753
0.15109641
0.19323139
0.24197343
0.29045984
0.33056415
0.35692344
0.36740916
0.36323696
0.34823495
0.32703322
0.30354182
0.27873026
0.040857456
0.046942482
-0.0038437691
-0.029594554
0.0015869624
0.041222104
0.068682283
0.090651981
0.066502958
0.056475028
0.034900734
-0.013014195
0.0093865545
0.021669401
0.048109188
0.038330939
0.025653951
0.0065664579
0.00029368126
-0.0029465959
-0.036902368
-0.03746098
0.0057144041
0.060206038
0.056157515
0.04607918
0.076510521
0.11726049
0.14615085
0.14316775
0.083349526
0.0043994911
-0.086876657
-0.11902857
-0.07626833
-0.0012592329
0.042370517
0.065248375
0.078845271
0.09542236
0.11667396
0.14745082
0.18779685
0.23574079
0.28509652
0.32751267
0.35732103
0.37156951
0.3701152
0.35606991
0.33367189
0.30738137
0.28048945
0.25342204
0.0035846388
0.043619628
0.045549154
-0.011152034
-0.036836678
-0.0013297432
0.040751403
0.072123438
0.097792607
0.070778836
0.059022274
0.034900567
-0.013619083
0.0088612629
0.021930111
0.04892936
0.038516763
0.026337971
0.0064111143
0.00035835846
-0.026159061
-0.027441855
0.010121027
0.057268484
0.048352535
0.0334186
0.059109506
0.098245646
0.13103655
0.13437646
0.079537485
0.0029388091
-0.089451056
-0.13685636
-0.086521728
-0.0085100726
0.036542721
0.061500675
0.07682395
0.093494524
0.1140668
0.14279002
0.18084996
0.22734511
0.27713746
0.32162689
0.3548473
0.37340559
0.37555892
0.36363789
0.34161692
0.31363715
0.28367269
0.2548373
0.22670653
-0.014497718
0.010617259
0.046862793
0.044540032
-0.017452759
-0.043090142
-0.0038789131
0.04040967
0.075436692
0.10450034
0.074860626
0.061596226
0.035000604
-0.013736586
0.0083365049
0.022297234
0.049452864
0.038713473
0.026957853
0.0063327413
0.00041194978
-0.015956307
0.015857086
0.05499709
0.041298883
0.021254926
0.041669469
0.078935829
0.11480631
0.12458485
0.075027568
0.00093193256
-0.093734934
-0.14670182
-0.10202721
-0.015610217
0.030856874
0.05755138
0.074559547
0.091209296
0.11081706
0.13705221
0.17227044
0.21657151
0.26628267
0.31246561
0.34913246
0.37253742
0.37910549
0.37027988
0.34964294
0.32128419
0.28945311
0.25743173
0.22775439
0.19963161
-0.0031621859
-0.0020234163
0.018152285
0.050641405
0.043976052
-0.022671738
-0.0483303
-0.0060699302
0.040172419
0.07855058
0.11073479
0.078726349
0.064170592
0.035197573
-0.01342861
0.0078138296
0.022844968
0.049861115
0.038937237
0.027459629
0.0063306406
0.00045858188
0.022867508
0.053389801
0.035032496
0.0097046449
0.024412521
0.059508981
0.097775443
0.11322321
0.069787655
-0.0011694822
-0.097716555
-0.15651744
-0.11733605
-0.027573457
0.025705289
0.05359755
0.072116394
0.088529901
0.10682331
0.13026609
0.16205496
0.20327494
0.25218365
0.29961654
0.33991998
0.36861993
0.38042036
0.3755752
0.35733218
0.32965321
0.29691323
0.26259492
0.22977618
0.20029135
0.17308883
0.031034895
0.010737929
0.011128177
0.026171788
0.054931601
0.043906639
-0.026763648
-0.052555133
-0.00791315
0.040031758
0.081421369
0.1164707
0.082357781
0.066737791
0.03548863
-0.012777127
0.0075413984
0.02351685
0.050093423
0.039198221
0.027804795
0.0063940635
0.0005038959
0.052354189
0.029535573
-0.0013113269
0.0074525207
0.040148693
0.080393723
0.099938888
0.064804372
-0.0029955172
-0.10068758
-0.16534441
-0.13233701
-0.04297831
0.018062289
0.050500281
0.069564605
0.085576453
0.1020877
0.12248756
0.15029099
0.18740699
0.23459491
0.28308842
0.32715911
0.36151781
0.37923517
0.37920512
0.3643625
0.33821123
0.30533231
0.2695812
0.23424535
0.20171019
0.17333905
0.14784395
0.051726654
0.040269994
0.025501393
0.024801949
0.034665599
0.059690545
0.044365869
-0.029716861
-0.055782794
-0.0094238002
0.039988288
0.084011457
0.12169156
0.085766523
0.069330859
0.035805692
-0.011790483
0.0073533377
0.024137557
0.050154239
0.039530306
0.027962156
0.0065128244
0.00055463883
0.024855748
-0.011742859
-0.0090236675
0.021078598
0.062967111
0.085013479
0.061069691
-0.0045357235
-0.10253434
-0.17281786
-0.14666478
-0.058178275
0.00800259
0.043824631
0.068584738
0.082318121
0.096792288
0.11379192
0.13694779
0.16872076
0.21332594
0.2630592
0.31085834
0.35117962
0.37534207
0.38094427
0.37040275
0.34672139
0.3144334
0.27789292
0.24052392
0.20545741
0.17429416
0.1477467
0.12445958
0.021027958
0.05154705
0.050472366
0.040858018
0.038854168
0.043607271
0.064897883
0.045378176
-0.031553257
-0.058048982
-0.010617339
0.040013885
0.086300865
0.12639768
0.089044132
0.071882897
0.035951956
-0.010914859
0.0073771954
0.024677261
0.050038195
0.039967353
0.027917452
0.0066767483
0.00061841673
-0.02150913
-0.024944384
0.0025969228
0.045800299
0.069804097
0.058501829
-0.0057034875
-0.10322411
-0.17866887
-0.1598054
-0.072321481
-0.0026075871
0.036434008
0.062242421
0.081273083
0.090864903
0.10431121
0.12118602
0.14687691
0.18871713
0.23989637
0.29122562
0.33770523
0.36863317
0.38090623
0.37530545
0.35498142
0.32408983
0.28729874
0.24851201
0.21100796
0.17722115
0.14829073
0.12410228
0.10323626
-0.030588021
0.017895943
0.051927015
0.061523408
0.056558681
0.053207698
0.052915363
0.070522732
0.046960217
-0.032321339
-0.059403046
-0.011504888
0.040075373
0.088276533
0.13062291
0.09216567
0.073803174
0.035536227
-0.0096905436
0.0076072696
0.025146871
0.049751103
0.040485006
0.027779613
0.0068691805
0.00070266344
-0.040212557
-0.015114533
0.02932688
0.055577654
0.055927959
-0.0063831778
-0.10275857
-0.1826101
-0.17135773
-0.085325723
-0.012843994
0.02845739
0.057128769
0.073854016
0.086739732
0.094308967
0.10376312
0.12340813
0.16225568
0.21554044
0.26944466
0.3216531
0.35931186
0.37851621
0.37894675
0.36283627
0.33415534
0.29771157
0.25795521
0.2183586
0.18192247
0.15034992
0.12423838
0.1027341
0.084360626
-0.054727018
-0.039001294
0.015224004
0.052705848
0.073056767
0.072333171
0.067725702
0.062479515
0.076501971
0.049117523
-0.032089087
-0.059903383
-0.012095963
0.04013405
0.089921361
0.13442741
0.094102958
0.075226402
0.035082212
-0.008198407
0.0080277592
0.025549561
0.04933853
0.040949265
0.027667265
0.0070723463
0.0008107693
-0.031811405
0.013921127
0.04249252
0.052387084
-0.0065367973
-0.10124763
-0.18436226
-0.18086393
-0.096766257
-0.022499451
0.020590175
0.051192275
0.069074129
0.077242927
0.084632265
0.08585936
0.097557896
0.13525885
0.18928396
0.24586115
0.30409927
0.34797185
0.37404757
0.38125771
0.37020519
0.34451532
0.30909142
0.26873023
0.22736032
0.18835992
0.15402713
0.12539442
0.10245879
0.083798316
0.067920292
-0.047298417
-0.068392101
-0.046760518
0.012893604
0.053913725
0.084613182
0.087964648
0.082199205
0.072255359
0.082768377
0.051861222
-0.030939769
-0.059607898
-0.012416743
0.040126515
0.091227549
0.13703778
0.095849973
0.076413086
0.03469882
-0.0065203475
0.0086191835
0.025886366
0.048837119
0.041236404
0.027571151
0.0072732238
0.00092977983
-0.00014097709
0.030718798
0.048323466
-0.0061259531
-0.098778983
-0.18373284
-0.1876285
-0.10616282
-0.031327315
0.013164596
0.04504768
0.063679396
0.070604677
0.073143727
0.064956915
0.070332913
0.10883572
0.16143977
0.22186064
0.28568583
0.33586987
0.36828151
0.38200981
0.37702806
0.35510548
0.32137397
0.28086785
0.23797023
0.19648251
0.15928846
0.12790694
0.10269323
0.083113598
0.067333261
0.053894461
-0.012705061
-0.06137955
-0.081107707
-0.053876909
0.010899642
0.055719036
0.09582662
0.10337377
0.096438074
0.082232999
0.089210141
0.055185083
-0.0289648
-0.058571653
-0.012544422
0.040007524
0.092522926
0.13953796
0.097672543
0.07729416
0.034401073
-0.0047169272
0.0093462205
0.026220681
0.048272381
0.041359588
0.02747765
0.0074772807
0.0010451003
0.020360921
0.043912956
-0.0050538569
-0.09525751
-0.18059649
-0.19107645
-0.113324
-0.038926921
0.0063515255
0.0392461
0.057853799
0.064308222
0.063728509
0.046796076
0.042510368
0.082709427
0.13196387
0.199854
0.26804376
0.3243217
0.36259384
0.38216669
0.38297835
0.36583709
0.33451532
0.29440669
0.25022083
0.20628634
0.16613263
0.13174687
0.10392228
0.082414363
0.066248757
0.053293528
0.042193249
0.011796015
-0.023491018
-0.073890776
-0.092764035
-0.060345428
0.0092382234
0.058023979
0.10638537
0.11841228
0.11030211
0.092306223
0.09569023
0.059035053
-0.026256204
-0.056957015
-0.012674004
0.040782488
0.095020079
0.14119691
0.099824603
0.077825312
0.034225071
-0.0028514848
0.010101295
0.026622745
0.047661012
0.0413365
0.027377101
0.0076978143
0.0011618212
0.039333663
-0.0028288224
-0.090594884
-0.17489292
-0.19094601
-0.11800165
-0.044868166
0.00041822263
0.033962074
0.052184935
0.057854453
0.05513087
0.029332592
0.022656061
0.052398289
0.10238815
0.18037196
0.25204391
0.31442974
0.35789275
0.38280496
0.38880132
0.3763693
0.34845635
0.30936348
0.26417139
0.21784555
0.17459019
0.13694268
0.10613355
0.082265436
0.064607871
0.051826226
0.041590325
0.032699058
0.035114091
0.0046858844
-0.032378392
-0.084695802
-0.10324173
-0.066135128
0.0078966595
0.060658364
0.11610941
0.13279293
0.12367655
0.10231981
0.10214064
0.06339543
-0.022945553
-0.058875402
-0.011220272
0.042468971
0.097752199
0.14193351
0.10237581
0.078120309
0.034207379
-0.00096163151
0.010797724
0.027076543
0.047021711
0.041182919
0.027261181
0.0079311754
0.0012967608
0.0011531161
-0.084803199
-0.16665136
-0.18710481
-0.11977202
-0.0487539
-0.0043152869
0.029374147
0.046854846
0.05164348
0.046416125
0.014459219
-0.0044135178
0.030794029
0.071754694
0.16259243
0.23851376
0.30644609
0.35465059
0.38424031
0.395249
0.38712842
0.36291135
0.32566935
0.2798251
0.23123749
0.18474594
0.14356062
0.10936769
0.08267968
0.063017423
0.04924497
0.039748878
0.032091316
0.025273027
0.0062673485
0.031901414
-0.0010954579
-0.03937267
-0.093686555
-0.1124204
-0.071199788
0.0068678664
0.063473191
0.12481094
0.14632023
0.13642992
0.11216184
0.1086043
0.06829066
-0.019206721
-0.054773977
-0.0094952715
0.044490073
0.10042327
0.14179841
0.10505081
0.078388079
0.034340609
0.00091519151
0.011458502
0.027548767
0.046372924
0.040918656
0.027124985
0.0081606777
0.0014659229
-0.077933409
-0.1559822
-0.17953982
-0.11835251
-0.050273295
-0.0075269943
0.025709804
0.041968107
0.04583592
0.03769437
0.00048457427
-0.028524733
-0.0075869822
0.054783938
0.1370377
0.22625306
0.29992143
0.35249349
0.38654094
0.40222739
0.39860553
0.37803168
0.3429949
0.29710681
0.24645637
0.19669426
0.1517004
0.11371769
0.083707692
0.061514089
0.046182041
0.036233988
0.029874831
0.02464299
0.01976169
-0.070084194
0.012381468
0.030257382
-0.005253229
-0.044676775
-0.10075334
-0.12018723
-0.075486654
0.006150062
0.066507217
0.13234455
0.1588957
0.1484244
0.12184411
0.11525464
0.073338935
-0.015557186
-0.052535266
-0.0073127069
0.046610795
0.10308634
0.14090597
0.10737162
0.078674841
0.034603538
0.0027392667
0.012121359
0.028007702
0.045729649
0.040570945
0.026967635
0.0083635753
0.0016601575
-0.1430658
-0.16835677
-0.11360005
-0.049200883
-0.0089019954
0.023157619
0.037749307
0.040488085
0.029404183
-0.013697238
-0.050508181
-0.041909645
0.015276068
0.12309077
0.21336716
0.29388801
0.35041493
0.38880347
0.40945284
0.41042213
0.39387025
0.36113587
0.315778
0.26350133
0.21049147
0.16146551
0.1192967
0.08545424
0.06015864
0.042693989
0.031684438
0.02543151
0.022039352
0.019076509
0.015999986
-0.12815091
-0.061156059
0.01957508
0.030313528
-0.0073579054
-0.048332976
-0.10578546
-0.12644783
-0.078942062
0.0056708082
0.069955396
0.13884804
0.17046462
0.15960874
0.13165686
0.1218544
0.07711681
-0.013805382
-0.047522075
-0.0048856903
0.048874975
0.10575748
0.1395862
0.10914714
0.078934272
0.034969959
0.0044778953
0.012812509
0.028425997
0.04509919
0.040174429
0.026792841
0.0085217746
0.0018608489
-0.15379783
-0.10551224
-0.045409765
-0.0081568054
0.021844398
0.034467883
0.035869877
0.021882831
-0.027954337
-0.072242035
-0.072602346
-0.019582124
0.083825205
0.20147362
0.28604868
0.34789597
0.38978187
0.41566543
0.42192938
0.40960388
0.37974169
0.33554104
0.28219241
0.22611674
0.17292236
0.1262122
0.088035521
0.059058951
0.038850041
0.026191857
0.019428375
0.016708789
0.016098878
0.015255545
0.013825129
-0.13621952
-0.11153301
-0.05089906
0.027510216
0.03198722
-0.0072375041
-0.050160173
-0.10870822
-0.13113781
-0.081516307
0.0052579664
0.073303156
0.14446743
0.18102282
0.17021426
0.14140288
0.12662818
0.078784851
-0.011338369
-0.043708694
-0.0022659676
0.051303974
0.10823873
0.13815789
0.11037701
0.079124611
0.035414794
0.0061167451
0.013537893
0.028786263
0.044482144
0.039768213
0.026607001
0.0086239885
0.0020134192
-0.094217748
-0.03888194
-0.005074985